 Gaussian 03, Revision D.01,
 Gaussian 03:  AM64L-G03RevD.01 13-Oct-2005

 --------------------------
 # freq opt mp2/aug-cc-pvDZ
 --------------------------

 -------------------
 Title Card Required
 -------------------
 Symbolic Z-matrix:
 Charge = -1 Multiplicity = 1

 SCF Done:  E(RHF) =  -227.536220728     A.U. after   11 cycles
 E2 =    -0.6928000478D+00 EUMP2 =    -0.22822902077564D+03
 SCF Done:  E(RHF) =  -227.540203528     A.U. after   11 cycles
 E2 =    -0.6941488098D+00 EUMP2 =    -0.22823435233736D+03
 SCF Done:  E(RHF) =  -227.541187890     A.U. after   11 cycles
 E2 =    -0.6942665039D+00 EUMP2 =    -0.22823545439384D+03
 SCF Done:  E(RHF) =  -227.541903489     A.U. after   11 cycles
 E2 =    -0.6940018568D+00 EUMP2 =    -0.22823590534557D+03
 SCF Done:  E(RHF) =  -227.542896249     A.U. after   11 cycles
 E2 =    -0.6933082111D+00 EUMP2 =    -0.22823620446049D+03
 SCF Done:  E(RHF) =  -227.543706920     A.U. after   10 cycles
 E2 =    -0.6926214062D+00 EUMP2 =    -0.22823632832629D+03
 SCF Done:  E(RHF) =  -227.543990082     A.U. after    9 cycles
 E2 =    -0.6923645822D+00 EUMP2 =    -0.22823635466386D+03
 SCF Done:  E(RHF) =  -227.544090212     A.U. after   10 cycles
 E2 =    -0.6922739604D+00 EUMP2 =    -0.22823636417248D+03
 SCF Done:  E(RHF) =  -227.544085710     A.U. after    9 cycles
 E2 =    -0.6922817906D+00 EUMP2 =    -0.22823636750086D+03
 SCF Done:  E(RHF) =  -227.544058533     A.U. after    9 cycles
 E2 =    -0.6923105536D+00 EUMP2 =    -0.22823636908640D+03
 SCF Done:  E(RHF) =  -227.544027274     A.U. after    8 cycles
 E2 =    -0.6923426982D+00 EUMP2 =    -0.22823636997191D+03
 SCF Done:  E(RHF) =  -227.544007607     A.U. after    8 cycles
 E2 =    -0.6923628466D+00 EUMP2 =    -0.22823637045358D+03
 SCF Done:  E(RHF) =  -227.543996852     A.U. after    9 cycles
 E2 =    -0.6923739610D+00 EUMP2 =    -0.22823637081313D+03
 SCF Done:  E(RHF) =  -227.543997704     A.U. after    8 cycles
 E2 =    -0.6923733785D+00 EUMP2 =    -0.22823637108207D+03
 SCF Done:  E(RHF) =  -227.544006671     A.U. after    8 cycles
 E2 =    -0.6923646618D+00 EUMP2 =    -0.22823637133302D+03
 SCF Done:  E(RHF) =  -227.544015833     A.U. after    8 cycles
 E2 =    -0.6923556915D+00 EUMP2 =    -0.22823637152489D+03
 SCF Done:  E(RHF) =  -227.544032638     A.U. after    8 cycles
 E2 =    -0.6923390920D+00 EUMP2 =    -0.22823637173017D+03
 SCF Done:  E(RHF) =  -227.544038584     A.U. after    8 cycles
 E2 =    -0.6923332402D+00 EUMP2 =    -0.22823637182414D+03
 SCF Done:  E(RHF) =  -227.544037990     A.U. after    7 cycles
 E2 =    -0.6923338673D+00 EUMP2 =    -0.22823637185756D+03
 Optimization completed.
    -- Stationary point found.
 Normal termination of Gaussian 03 at Wed May  2 21:27:59 2007.

 ----------------------------------------------------------------------
 #N Geom=AllCheck Guess=Read SCRF=Check GenChk RMP2(FC)/Aug-CC-pVDZ Fre
 q
 ----------------------------------------------------------------------

 Title Card Required
 -------------------
 Redundant internal coordinates taken from checkpoint file:
 depW3.chk
 Charge = -1 Multiplicity = 1

                         Standard orientation:
 ---------------------------------------------------------------------
 Center     Atomic     Atomic              Coordinates (Angstroms)
 Number     Number      Type              X           Y           Z
 ---------------------------------------------------------------------
    1          8             0       -0.000006    0.592887    0.000160
    2          8             0        2.415986   -0.318802    0.096301
    3          8             0       -2.415848   -0.319131   -0.096366
    4          1             0       -1.453694    0.062314   -0.093491
    5          1             0        0.000014    1.560120   -0.001823
    6          1             0        1.453830    0.062628    0.093483
    7          1             0        2.489835   -0.663809   -0.801646
    8          1             0       -2.491040   -0.660892    0.802710
 ---------------------------------------------------------------------

 SCF Done:  E(RHF) =  -227.544037990     A.U. after    1 cycles
 E2 =    -0.6923338514D+00 EUMP2 =    -0.22823637184174D+03

 The electronic state is 1-A.
 Alpha  occ. eigenvalues --  -20.35186 -20.35185 -20.28103  -1.12174  -1.11892
 Alpha  occ. eigenvalues --   -1.01454  -0.48919  -0.47647  -0.38922  -0.38356
 Alpha  occ. eigenvalues --   -0.33055  -0.28716  -0.28512  -0.21292  -0.20789
 Alpha virt. eigenvalues --    0.15462   0.16270   0.17860   0.20306   0.22018
 Alpha virt. eigenvalues --    0.33035   0.33874   0.35448   0.36333   0.37019
 Alpha virt. eigenvalues --    0.37532   0.38905   0.40917   0.43434   0.44583

 Mulliken atomic charges:
              1
     1  O   -1.067025
     2  O   -0.524174
     3  O   -0.524174
     4  H    0.457063
     5  H    0.024037
     6  H    0.457045
     7  H    0.088640
     8  H    0.088588
 Sum of Mulliken charges=  -1.00000

 Dipole moment (field-independent basis, Debye):
    X=    -0.0020    Y=    -0.0343    Z=    -0.0013  Tot=     0.0344
 Quadrupole moment (field-independent basis, Debye-Ang):
   XX=   -45.6421   YY=   -21.2493   ZZ=   -21.1366
   XY=    -0.0120   XZ=    -7.8088   YZ=    -0.0017

  Exact polarizability:  47.705  -0.002  35.814  -0.831   0.002  35.092
 Approx polarizability:  26.374   0.000  25.226  -0.427   0.001  25.439

 ******    1 imaginary frequencies (negative Signs) ******

                     1                      2                      3
                     A                      A                      A
 Frequencies --   -35.4466                51.5350               146.1646
 Red. masses --     1.4524                 4.9312                 1.1400
 Frc consts  --     0.0011                 0.0077                 0.0143
 IR Inten    --    20.6770                 3.3354               130.7452

                     4                      5                      6
                     A                      A                      A
 Frequencies --   213.6055               271.6665               365.1029
 Red. masses --     1.0675                 6.4494                 4.1885
 Frc consts  --     0.0287                 0.2804                 0.3290
 IR Inten    --    96.7137                10.4496               188.5991

                     7                      8                      9
                     A                      A                      A
 Frequencies --   483.1445               533.3955               569.0491
 Red. masses --     1.1197                 1.0362                 1.1059
 Frc consts  --     0.1540                 0.1737                 0.2110
 IR Inten    --   150.6320                16.7006                22.0395

                    10                     11                     12
                     A                      A                      A
 Frequencies --  1138.2958              1168.7978              1681.6329
 Red. masses --     1.0483                 1.0512                 1.0697
 Frc consts  --     0.8003                 0.8461                 1.7822
 IR Inten    --    75.6527                 6.8186               141.1842

                    13                     14                     15
                     A                      A                      A
 Frequencies --  1693.7800              2473.7918              2654.0410
 Red. masses --     1.0681                 1.0796                 1.0717
 Frc consts  --     1.8053                 3.8928                 4.4475
 IR Inten    --     4.2458              4297.0572               663.3715

                    16                     17                     18
                     A                      A                      A
 Frequencies --  3837.2017              3877.4493              3877.8571
 Red. masses --     1.0664                 1.0647                 1.0648
 Frc consts  --     9.2509                 9.4311                 9.4340
 IR Inten    --     1.5954                15.9907                 5.0169

 - Thermochemistry -
 -------------------
 Temperature   298.150 Kelvin.  Pressure   1.00000 Atm.
 Atom  1 has atomic number  8 and mass  15.99491

 Molecular mass:    53.02387 amu.
 Principal axes and moments of inertia in atomic units:
                           1         2         3
     EIGENVALUES --    49.15171 732.37768 770.50173
           X            0.99983  -0.00003  -0.01828
           Y            0.00003   1.00000  -0.00010
           Z            0.01828   0.00010   0.99983
 This molecule is an asymmetric top.
 Rotational symmetry number  1.
 Rotational temperatures (Kelvin)      1.76217     0.11826     0.11241
 Rotational constants (GHZ):          36.71777     2.46422     2.34229
    1 imaginary frequencies ignored.
 Zero-point vibrational energy     149751.6 (Joules/Mol)
                                   35.79149 (Kcal/Mol)
 Warning -- explicit consideration of   8 degrees of freedom as
           vibrations may cause significant error
 Vibrational temperatures:     74.15   210.30   307.33   390.87   525.30
          (Kelvin)            695.14   767.44   818.73  1637.75  1681.64
                             2419.49  2436.97  3559.23  3818.57  5520.87
                             5578.78  5579.36

 Zero-point correction=                           0.057037 (Hartree/Particle)
 Thermal correction to Energy=                    0.063353
 Thermal correction to Enthalpy=                  0.064297
 Thermal correction to Gibbs Free Energy=         0.027838
 Sum of electronic and zero-point Energies=           -228.179334
 Sum of electronic and thermal Energies=              -228.173019
 Sum of electronic and thermal Enthalpies=            -228.172074
 Sum of electronic and thermal Free Energies=         -228.208534

                     E (Thermal)             CV                S
                      KCal/Mol        Cal/Mol-Kelvin    Cal/Mol-Kelvin
 Total                   39.755             19.051             76.735
 Electronic               0.000              0.000              0.000
 Translational            0.889              2.981             37.827
 Rotational               0.889              2.981             24.832
 Vibrational             37.977             13.090             14.076
 Vibration  1             0.596              1.977              4.758
 Vibration  2             0.617              1.907              2.722
 Vibration  3             0.644              1.820              2.013
 Vibration  4             0.675              1.725              1.586
 Vibration  5             0.738              1.544              1.100
 Vibration  6             0.839              1.287              0.702
 Vibration  7             0.888              1.176              0.580
 Vibration  8             0.925              1.098              0.506

 Normal termination of Gaussian 03 at Wed May  2 21:47:11 2007.
