 Gaussian 03, Revision D.01,
 Gaussian 03:  AM64L-G03RevD.01 13-Oct-2005

 -----------------------------------------
 #opt=(maxcycles=200) freq mp2/aug-cc-pvDZ
 -----------------------------------------

 -----
 Str 5
 -----
 Symbolic Z-matrix:
 Charge = -1 Multiplicity = 1

 SCF Done:  E(RHF) =  -303.611610978     A.U. after   11 cycles
 E2 =    -0.9165197428D+00 EUMP2 =    -0.30452813072093D+03
 SCF Done:  E(RHF) =  -303.611643517     A.U. after    8 cycles
 E2 =    -0.9164877811D+00 EUMP2 =    -0.30452813129829D+03
 SCF Done:  E(RHF) =  -303.611687385     A.U. after    8 cycles
 E2 =    -0.9164445859D+00 EUMP2 =    -0.30452813197063D+03
 SCF Done:  E(RHF) =  -303.611721997     A.U. after    9 cycles
 E2 =    -0.9164106734D+00 EUMP2 =    -0.30452813267077D+03
 SCF Done:  E(RHF) =  -303.611762546     A.U. after    9 cycles
 E2 =    -0.9163710841D+00 EUMP2 =    -0.30452813363055D+03
 SCF Done:  E(RHF) =  -303.611779785     A.U. after    9 cycles
 E2 =    -0.9163547924D+00 EUMP2 =    -0.30452813457768D+03
 SCF Done:  E(RHF) =  -303.611770773     A.U. after    9 cycles
 E2 =    -0.9163648539D+00 EUMP2 =    -0.30452813562651D+03
 SCF Done:  E(RHF) =  -303.611732045     A.U. after    9 cycles
 E2 =    -0.9164042491D+00 EUMP2 =    -0.30452813629436D+03
 SCF Done:  E(RHF) =  -303.611698727     A.U. after    8 cycles
 E2 =    -0.9164378222D+00 EUMP2 =    -0.30452813654919D+03
 SCF Done:  E(RHF) =  -303.611683146     A.U. after    7 cycles
 E2 =    -0.9164535555D+00 EUMP2 =    -0.30452813670184D+03
 E2 =    -0.9164477997D+00 EUMP2 =    -0.30452813654275D+03
 E2 =    -0.9164917198D+00 EUMP2 =    -0.30452813739910D+03
 E2 =    -0.9165507719D+00 EUMP2 =    -0.30452813766235D+03
 E2 =    -0.9165168873D+00 EUMP2 =    -0.30452813838448D+03
 E2 =    -0.9164786283D+00 EUMP2 =    -0.30452813926705D+03
 E2 =    -0.9164521697D+00 EUMP2 =    -0.30452814051761D+03
 E2 =    -0.9164655847D+00 EUMP2 =    -0.30452814223316D+03
 E2 =    -0.9166754847D+00 EUMP2 =    -0.30452814755897D+03
 E2 =    -0.9171869635D+00 EUMP2 =    -0.30452812918520D+03
 E2 =    -0.9168898007D+00 EUMP2 =    -0.30452814096165D+03
 E2 =    -0.9167246085D+00 EUMP2 =    -0.30452814828227D+03
 E2 =    -0.9168708822D+00 EUMP2 =    -0.30452815228431D+03
 E2 =    -0.9171610939D+00 EUMP2 =    -0.30452815417399D+03
 E2 =    -0.9169692069D+00 EUMP2 =    -0.30452816478419D+03
 E2 =    -0.9170556233D+00 EUMP2 =    -0.30452816649768D+03
 E2 =    -0.9170555711D+00 EUMP2 =    -0.30452816948539D+03
 E2 =    -0.9173897954D+00 EUMP2 =    -0.30452818096538D+03
 E2 =    -0.9182897510D+00 EUMP2 =    -0.30452817539996D+03
 SCF Done:  E(RHF) =  -303.610400162     A.U. after   10 cycles
 E2 =    -0.9177937166D+00 EUMP2 =    -0.30452819387854D+03
 SCF Done:  E(RHF) =  -303.610458459     A.U. after   10 cycles
 E2 =    -0.9177366481D+00 EUMP2 =    -0.30452819510678D+03
 SCF Done:  E(RHF) =  -303.610500166     A.U. after    9 cycles
 E2 =    -0.9177145870D+00 EUMP2 =    -0.30452821475278D+03
 SCF Done:  E(RHF) =  -303.610849901     A.U. after   11 cycles
 E2 =    -0.9173716411D+00 EUMP2 =    -0.30452822154176D+03
 SCF Done:  E(RHF) =  -303.610711984     A.U. after   11 cycles
 E2 =    -0.9175140677D+00 EUMP2 =    -0.30452822605191D+03
 SCF Done:  E(RHF) =  -303.610688886     A.U. after   11 cycles
 E2 =    -0.9175374704D+00 EUMP2 =    -0.30452822635631D+03
 SCF Done:  E(RHF) =  -303.610718287     A.U. after   10 cycles
 E2 =    -0.9175085305D+00 EUMP2 =    -0.30452822681788D+03
 SCF Done:  E(RHF) =  -303.610723933     A.U. after    8 cycles
 E2 =    -0.9175029640D+00 EUMP2 =    -0.30452822689709D+03
 SCF Done:  E(RHF) =  -303.610717748     A.U. after    9 cycles
 E2 =    -0.9175092256D+00 EUMP2 =    -0.30452822697375D+03
 Optimization completed.
    -- Stationary point found.
 Normal termination of Gaussian 03 at Thu May 13 17:34:56 2010.

 ----------------------------------------------------------------------
 #N Geom=AllCheck Guess=Read SCRF=Check GenChk RMP2(FC)/Aug-CC-pVDZ Fre
 q
 ----------------------------------------------------------------------

 Str 5
 -----
 Redundant internal coordinates taken from checkpoint file:
 depW2-4.freq.0.chk
 Charge = -1 Multiplicity = 1

                         Standard orientation:
 ---------------------------------------------------------------------
 Center     Atomic     Atomic              Coordinates (Angstroms)
 Number     Number      Type              X           Y           Z
 ---------------------------------------------------------------------
    1          8             0       -1.825178   -0.589939   -0.471262
    2          8             0        0.400858    1.873687   -0.465376
    3          8             0       -0.003364   -0.003503    1.342934
    4          8             0        1.428389   -1.280317   -0.468172
    5          1             0        0.950496   -0.922735    0.342188
    6          1             0       -1.188969   -1.140264   -0.950231
    7          1             0        0.323680    1.280744    0.344443
    8          1             0       -0.394326    1.599449   -0.944514
    9          1             0       -0.005407   -0.003430    2.307110
   10          1             0       -1.274931   -0.361353    0.340220
   11          1             0        1.583816   -0.451838   -0.944208
 ---------------------------------------------------------------------

 SCF Done:  E(RHF) =  -303.610717748     A.U. after    1 cycles
 E2 =    -0.9175092262D+00 EUMP2 =    -0.30452822697437D+03

 The electronic state is 1-A.
 Alpha  occ. eigenvalues --  -20.37308 -20.37306 -20.37298 -20.30511  -1.15274
 Alpha  occ. eigenvalues --   -1.14293  -1.14289  -1.04068  -0.51125  -0.50127
 Alpha  occ. eigenvalues --   -0.50117  -0.43146  -0.39991  -0.39987  -0.34465
 Alpha  occ. eigenvalues --   -0.31152  -0.30679  -0.30676  -0.23756  -0.23754
 Alpha virt. eigenvalues --    0.15576   0.16726   0.18094   0.18102   0.19705
 Alpha virt. eigenvalues --    0.19708   0.20747   0.32502   0.33304   0.33318
 Alpha virt. eigenvalues --    0.35387   0.37651   0.38066   0.38077   0.39209

 Mulliken atomic charges:
              1
     1  O   -0.503035
     2  O   -0.503506
     3  O   -1.216695
     4  O   -0.502786
     5  H    0.414378
     6  H    0.133859
     7  H    0.415344
     8  H    0.134528
     9  H    0.077455
    10  H    0.415739
    11  H    0.134719
 Sum of Mulliken charges=  -1.00000

 Dipole moment (field-independent basis, Debye):
    X=    -0.0069    Y=     0.0055    Z=    -0.3868  Tot=     0.3869
 Quadrupole moment (field-independent basis, Debye-Ang):
   XX=   -41.8135   YY=   -41.7222   ZZ=   -28.3450
   XY=     0.0126   XZ=    -0.0022   YZ=    -0.0096

  Exact polarizability:  47.264   0.003  47.251  -0.002  -0.009  47.690
 Approx polarizability:  31.469  -0.004  31.469  -0.004  -0.005  34.434

                     1                      2                      3
                     A                      A                      A
 Frequencies --    40.2843                41.3995                45.4678
 Red. masses --     7.6844                 7.6998                 5.6836
 Frc consts  --     0.0073                 0.0078                 0.0069
 IR Inten    --     4.4914                 4.5703                 0.4135

                     4                      5                      6
                     A                      A                      A
 Frequencies --   234.0299               234.4366               291.4975
 Red. masses --     1.5248                 1.5245                 1.8712
 Frc consts  --     0.0492                 0.0494                 0.0937
 IR Inten    --    18.8972                19.4008               104.0179

                     7                      8                      9
                     A                      A                      A
 Frequencies --   291.5960               320.3450               321.0422
 Red. masses --     1.8790                 1.1647                 1.1605
 Frc consts  --     0.0941                 0.0704                 0.0705
 IR Inten    --   102.1507                27.7819                25.8466

                    10                     11                     12
                     A                      A                      A
 Frequencies --   346.3429               463.6065               524.3506
 Red. masses --     7.0296                 1.0624                 1.0560
 Frc consts  --     0.4968                 0.1345                 0.1711
 IR Inten    --    57.5440                 9.0274               129.7882

                    13                     14                     15
                     A                      A                      A
 Frequencies --   532.9958               533.5273               967.3762
 Red. masses --     1.0662                 1.0672                 1.0462
 Frc consts  --     0.1785                 0.1790                 0.5768
 IR Inten    --    21.1528                21.0724                37.5626

                    16                     17                     18
                     A                      A                      A
 Frequencies --   977.2608               978.3046              1709.2185
 Red. masses --     1.0467                 1.0466                 1.0725
 Frc consts  --     0.5890                 0.5902                 1.8461
 IR Inten    --   130.7660               132.3643               148.1366

                    19                     20                     21
                     A                      A                      A
 Frequencies --  1709.3887              1714.6102              3025.4955
 Red. masses --     1.0726                 1.0739                 1.0686
 Frc consts  --     1.8465                 1.8601                 5.7631
 IR Inten    --   147.8464                60.5810               803.5942

                    22                     23                     24
                     A                      A                      A
 Frequencies --  3029.0937              3174.6283              3833.2323
 Red. masses --     1.0685                 1.0626                 1.0648
 Frc consts  --     5.7765                 6.3099                 9.2183
 IR Inten    --   798.8859              1717.8664                57.7068

                    25                     26                     27
                     A                      A                      A
 Frequencies --  3835.8303              3836.3523              3871.9791
 Red. masses --     1.0641                 1.0641                 1.0670
 Frc consts  --     9.2250                 9.2276                 9.4248
 IR Inten    --    28.0943                27.7959                 0.4335

 - Thermochemistry -
 -------------------
 Temperature   298.150 Kelvin.  Pressure   1.00000 Atm.
 Atom  1 has atomic number  8 and mass  15.99491

 Molecular mass:    71.03443 amu.
 Principal axes and moments of inertia in atomic units:
                           1         2         3
     EIGENVALUES --   508.76226 510.81767 678.24710
           X            0.99991   0.01312  -0.00006
           Y           -0.01312   0.99991  -0.00013
           Z            0.00006   0.00013   1.00000
 This molecule is an asymmetric top.
 Rotational symmetry number  1.
 Warning -- assumption of classical behavior for rotation
           may cause significant error
 Rotational temperatures (Kelvin)      0.17024     0.16956     0.12770
 Rotational constants (GHZ):           3.54732     3.53304     2.66089
 Zero-point vibrational energy     220613.5 (Joules/Mol)
                                   52.72788 (Kcal/Mol)
 Warning -- explicit consideration of  14 degrees of freedom as
           vibrations may cause significant error
 Vibrational temperatures:     57.96    59.56    65.42   336.72   337.30
          (Kelvin)            419.40   419.54   460.90   461.91   498.31
                              667.03   754.42   766.86   767.63  1391.84
                             1406.06  1407.56  2459.18  2459.43  2466.94
                             4353.01  4358.18  4567.58  5515.16  5518.90
                             5519.65  5570.91

 Zero-point correction=                           0.084027 (Hartree/Particle)
 Thermal correction to Energy=                    0.093436
 Thermal correction to Enthalpy=                  0.094380
 Thermal correction to Gibbs Free Energy=         0.049685
 Sum of electronic and zero-point Energies=           -304.444200
 Sum of electronic and thermal Energies=              -304.434791
 Sum of electronic and thermal Enthalpies=            -304.433847
 Sum of electronic and thermal Free Energies=         -304.478542

                     E (Thermal)             CV                S
                      KCal/Mol        Cal/Mol-Kelvin    Cal/Mol-Kelvin
 Total                   58.632             29.913             94.069
 Electronic               0.000              0.000              0.000
 Translational            0.889              2.981             38.699
 Rotational               0.889              2.981             26.669
 Vibrational             56.855             23.952             28.701
 Vibration  1             0.594              1.981              5.245
 Vibration  2             0.594              1.981              5.191
 Vibration  3             0.595              1.979              5.005
 Vibration  4             0.654              1.789              1.848
 Vibration  5             0.654              1.788              1.845
 Vibration  6             0.687              1.690              1.465
 Vibration  7             0.687              1.689              1.465
 Vibration  8             0.706              1.635              1.308
 Vibration  9             0.707              1.633              1.305
 Vibration 10             0.724              1.583              1.183
 Vibration 11             0.821              1.331              0.756
 Vibration 12             0.879              1.196              0.600
 Vibration 13             0.888              1.177              0.581
 Vibration 14             0.889              1.176              0.579

 Normal termination of Gaussian 03 at Thu May 13 17:49:16 2010.
