 Gaussian 03, Revision D.01,
 Gaussian 03:  AM64L-G03RevD.01 13-Oct-2005

 --------------------------
 # freq opt mp2/aug-cc-pvDZ
 --------------------------

 -------------------
 Title Card Required
 -------------------
 Symbolic Z-matrix:
 Charge = -1 Multiplicity = 1

 SCF Done:  E(RHF) =  -75.3961536706     A.U. after   11 cycles
 E2 =    -0.2398939512D+00 EUMP2 =    -0.75636047621770D+02
 SCF Done:  E(RHF) =  -75.3955757605     A.U. after   10 cycles
 E2 =    -0.2414398130D+00 EUMP2 =    -0.75637015573496D+02
 SCF Done:  E(RHF) =  -75.3954968042     A.U. after    8 cycles
 E2 =    -0.2415211096D+00 EUMP2 =    -0.75637017913796D+02
 Optimization completed.
    -- Stationary point found.
 Normal termination of Gaussian 03 at Wed May  2 17:42:01 2007.

 ----------------------------------------------------------------------
 #N Geom=AllCheck Guess=Read SCRF=Check GenChk RMP2(FC)/Aug-CC-pVDZ Fre
 q
 ----------------------------------------------------------------------

 Title Card Required
 -------------------
 Redundant internal coordinates taken from checkpoint file:
 depW1.chk
 Charge = -1 Multiplicity = 1

                         Standard orientation:
 ---------------------------------------------------------------------
 Center     Atomic     Atomic              Coordinates (Angstroms)
 Number     Number      Type              X           Y           Z
 ---------------------------------------------------------------------
    1          8             0        0.000000    0.000000    0.108143
    2          1             0        0.000000    0.000000   -0.865145
 ---------------------------------------------------------------------

 SCF Done:  E(RHF) =  -75.3954968042     A.U. after    1 cycles
 E2 =    -0.2415211097D+00 EUMP2 =    -0.75637017913863D+02

 The electronic state is 1-SG.
 Alpha  occ. eigenvalues --  -20.19907  -0.90294  -0.25006  -0.10844  -0.10844
 Alpha virt. eigenvalues --    0.19817   0.39251   0.43043   0.43043   0.46865
 Alpha virt. eigenvalues --    0.58106   0.65746   0.65746   0.92511   1.17381
 Alpha virt. eigenvalues --    1.32346   1.32346   1.45398   1.45398   1.67361

 Mulliken atomic charges:
              1
     1  O   -0.991365
     2  H   -0.008635
 Sum of Mulliken charges=  -1.00000

 Dipole moment (field-independent basis, Debye):
    X=     0.0000    Y=     0.0000    Z=    -1.5258  Tot=     1.5258
 Quadrupole moment (field-independent basis, Debye-Ang):
   XX=   -10.0174   YY=   -10.0174   ZZ=    -7.8023
   XY=     0.0000   XZ=     0.0000   YZ=     0.0000

  Exact polarizability:  23.120   0.000  23.120   0.000   0.000  18.130
 Approx polarizability:  10.037   0.000  10.037   0.000   0.000  12.571

                     1
                    SG
 Frequencies --  3764.0842
 Red. masses --     1.0671
 Frc consts  --     8.9078
 IR Inten    --    59.5593

 - Thermochemistry -
 -------------------
 Temperature   298.150 Kelvin.  Pressure   1.00000 Atm.
 Atom  1 has atomic number  8 and mass  15.99491

 Molecular mass:    17.00274 amu.
 Principal axes and moments of inertia in atomic units:
                           1         2         3
     EIGENVALUES --     0.00000   3.20722   3.20722
           X            0.00000  -0.23227   0.97265
           Y            0.00000   0.97265   0.23227
           Z            1.00000   0.00000   0.00000
 This molecule is a prolate symmetric top.
 Rotational symmetry number  1.
 Rotational temperature (Kelvin)     27.00591
 Rotational constant (GHZ):         562.712595
 Zero-point vibrational energy      22514.2 (Joules/Mol)
                                    5.38103 (Kcal/Mol)
 Vibrational temperatures:   5415.67
          (Kelvin)

 Zero-point correction=                           0.008575 (Hartree/Particle)
 Thermal correction to Energy=                    0.010936
 Thermal correction to Enthalpy=                  0.011880
 Thermal correction to Gibbs Free Energy=        -0.007694
 Sum of electronic and zero-point Energies=            -75.628443
 Sum of electronic and thermal Energies=               -75.626082
 Sum of electronic and thermal Enthalpies=             -75.625138
 Sum of electronic and thermal Free Energies=          -75.644712

                     E (Thermal)             CV                S
                      KCal/Mol        Cal/Mol-Kelvin    Cal/Mol-Kelvin
 Total                    6.862              4.968             41.196
 Electronic               0.000              0.000              0.000
 Translational            0.889              2.981             34.437
 Rotational               0.592              1.987              6.760
 Vibrational              5.381              0.000              0.000

 Optimization completed.
    -- Stationary point found.
 Normal termination of Gaussian 03 at Wed May  2 17:42:30 2007.
