 Gaussian 03, Revision D.01,
 Gaussian 03:  AM64L-G03RevD.01 13-Oct-2005

 --------------------------
 # freq opt mp2/aug-cc-pvDZ
 --------------------------

 -------------------
 Title Card Required
 -------------------
 Symbolic Z-matrix:
 Charge = -1 Multiplicity = 1

 SCF Done:  E(RHF) =  -151.468257655     A.U. after   11 cycles
 E2 =    -0.4670165088D+00 EUMP2 =    -0.15193527416413D+03
 SCF Done:  E(RHF) =  -151.469110384     A.U. after   13 cycles
 E2 =    -0.4695027409D+00 EUMP2 =    -0.15193861312466D+03
 SCF Done:  E(RHF) =  -151.469010097     A.U. after   13 cycles
 E2 =    -0.4706097567D+00 EUMP2 =    -0.15193961985415D+03
 SCF Done:  E(RHF) =  -151.468803556     A.U. after   13 cycles
 E2 =    -0.4711229625D+00 EUMP2 =    -0.15193992651816D+03
 SCF Done:  E(RHF) =  -151.469101886     A.U. after   10 cycles
 E2 =    -0.4709352705D+00 EUMP2 =    -0.15194003715613D+03
 SCF Done:  E(RHF) =  -151.469441250     A.U. after   10 cycles
 E2 =    -0.4706341528D+00 EUMP2 =    -0.15194007540234D+03
 SCF Done:  E(RHF) =  -151.469478224     A.U. after    8 cycles
 E2 =    -0.4706033001D+00 EUMP2 =    -0.15194008152403D+03
 SCF Done:  E(RHF) =  -151.469478642     A.U. after    7 cycles
 E2 =    -0.4706035209D+00 EUMP2 =    -0.15194008216268D+03
 SCF Done:  E(RHF) =  -151.469428833     A.U. after   10 cycles
 E2 =    -0.4706492305D+00 EUMP2 =    -0.15194007806313D+03
 SCF Done:  E(RHF) =  -151.469432173     A.U. after    8 cycles
 E2 =    -0.4706472823D+00 EUMP2 =    -0.15194007945507D+03
 SCF Done:  E(RHF) =  -151.469469411     A.U. after    9 cycles
 E2 =    -0.4706129661D+00 EUMP2 =    -0.15194008237700D+03
 SCF Done:  E(RHF) =  -151.469468669     A.U. after    8 cycles
 E2 =    -0.4706142906D+00 EUMP2 =    -0.15194008295999D+03
 SCF Done:  E(RHF) =  -151.469465343     A.U. after    8 cycles
 E2 =    -0.4706176907D+00 EUMP2 =    -0.15194008303337D+03
 SCF Done:  E(RHF) =  -151.469464995     A.U. after    8 cycles
 E2 =    -0.4706184702D+00 EUMP2 =    -0.15194008346472D+03
 SCF Done:  E(RHF) =  -151.469462615     A.U. after    8 cycles
 E2 =    -0.4706209074D+00 EUMP2 =    -0.15194008352279D+03
 Optimization completed.
    -- Stationary point found.
 Normal termination of Gaussian 03 at Thu May  3 00:40:10 2007.

 ----------------------------------------------------------------------
 #N Geom=AllCheck Guess=Read SCRF=Check GenChk RMP2(FC)/Aug-CC-pVDZ Fre
 q
 ----------------------------------------------------------------------

 Title Card Required
 -------------------
 Redundant internal coordinates taken from checkpoint file:
 W2.chk
 Charge = -1 Multiplicity = 1

                         Standard orientation:
 ---------------------------------------------------------------------
 Center     Atomic     Atomic              Coordinates (Angstroms)
 Number     Number      Type              X           Y           Z
 ---------------------------------------------------------------------
    1          8             0        1.224975    0.092910   -0.064072
    2          8             0       -1.224974   -0.092910   -0.064071
    3          1             0       -0.000006   -0.000001   -0.063076
    4          1             0        1.499238   -0.607305    0.544112
    5          1             0       -1.499235    0.607308    0.544109
 ---------------------------------------------------------------------

 SCF Done:  E(RHF) =  -151.469462615     A.U. after    1 cycles
 E2 =    -0.4706209077D+00 EUMP2 =    -0.15194008352307D+03

 The electronic state is 1-A.
 Alpha  occ. eigenvalues --  -20.27792 -20.27789  -1.04239  -1.00063  -0.41953
 Alpha  occ. eigenvalues --   -0.34672  -0.30333  -0.20988  -0.20592  -0.17685
 Alpha virt. eigenvalues --    0.16787   0.18454   0.22375   0.34862   0.36744
 Alpha virt. eigenvalues --    0.38506   0.39981   0.40482   0.40609   0.46677
 Alpha virt. eigenvalues --    0.48293   0.54594   0.55780   0.58997   0.61663

 Mulliken atomic charges:
              1
     1  O   -0.826117
     2  O   -0.826104
     3  H    0.574532
     4  H    0.038844
     5  H    0.038846
 Sum of Mulliken charges=  -1.00000

 Dipole moment (field-independent basis, Debye):
    X=    -0.0001    Y=     0.0000    Z=     1.8758  Tot=     1.8758
 Quadrupole moment (field-independent basis, Debye-Ang):
   XX=   -25.7800   YY=   -15.1958   ZZ=   -15.6276
   XY=    -4.1275   XZ=     0.0000   YZ=     0.0000

  Exact polarizability:  39.511  -0.177  26.530   0.000   0.000  26.821
 Approx polarizability:  20.851  -0.758  18.268   0.000   0.000  17.894

 ******    1 imaginary frequencies (negative Signs) ******

                     1                      2                      3
                     A                      A                      A
 Frequencies --  -680.4245               206.2194               555.3898
 Red. masses --     1.0236                 1.0726                 1.3197
 Frc consts  --     0.2792                 0.0269                 0.2398
 IR Inten    --  4493.1481                89.2711                 4.2419

                     4                      5                      6
                     A                      A                      A
 Frequencies --   557.1326               599.3223              1497.6450
 Red. masses --     1.0903                 3.6489                 1.0445
 Frc consts  --     0.1994                 0.7722                 1.3803
 IR Inten    --   626.7361                 3.1941                15.4383

                     7                      8                      9
                     A                      A                      A
 Frequencies --  1578.7458              3836.1416              3837.5110
 Red. masses --     1.0478                 1.0660                 1.0657
 Frc consts  --     1.5387                 9.2426                 9.2465
 IR Inten    --    16.3842                 1.9864                 2.0697

 - Thermochemistry -
 -------------------
 Temperature   298.150 Kelvin.  Pressure   1.00000 Atm.
 Atom  1 has atomic number  8 and mass  15.99491

 Molecular mass:    35.01330 amu.
 Principal axes and moments of inertia in atomic units:
                           1         2         3
     EIGENVALUES --     5.92411 190.33462 191.24088
           X            0.99939  -0.03499   0.00000
           Y            0.03499   0.99939   0.00000
           Z            0.00000   0.00000   1.00000
 This molecule is an asymmetric top.
 Rotational symmetry number  1.
 Rotational temperatures (Kelvin)     14.62057     0.45506     0.45290
 Rotational constants (GHZ):         304.64359     9.48194     9.43701
    1 imaginary frequencies ignored.
 Zero-point vibrational energy      75772.1 (Joules/Mol)
                                   18.10997 (Kcal/Mol)
 Warning -- explicit consideration of   4 degrees of freedom as
           vibrations may cause significant error
 Vibrational temperatures:    296.70   799.08   801.59   862.29  2154.77
          (Kelvin)           2271.46  5519.35  5521.32

 Zero-point correction=                           0.028860 (Hartree/Particle)
 Thermal correction to Energy=                    0.032784
 Thermal correction to Enthalpy=                  0.033728
 Thermal correction to Gibbs Free Energy=         0.005122
 Sum of electronic and zero-point Energies=           -151.911223
 Sum of electronic and thermal Energies=              -151.907300
 Sum of electronic and thermal Enthalpies=            -151.906355
 Sum of electronic and thermal Free Energies=         -151.934961

                     E (Thermal)             CV                S
                      KCal/Mol        Cal/Mol-Kelvin    Cal/Mol-Kelvin
 Total                   20.572             11.210             60.206
 Electronic               0.000              0.000              0.000
 Translational            0.889              2.981             36.590
 Rotational               0.889              2.981             20.006
 Vibrational             18.795              5.249              3.611
 Vibration  1             0.641              1.831              2.077
 Vibration  2             0.911              1.128              0.533
 Vibration  3             0.913              1.124              0.530
 Vibration  4             0.957              1.033              0.451

 Optimization completed.
    -- Stationary point found.
 Normal termination of Gaussian 03 at Thu May  3 00:43:02 2007.
