 Gaussian 03, Revision D.01,
 Gaussian 03:  AM64L-G03RevD.01 13-Oct-2005

 ----------------------------------------------
 # Opt=Tight Int=Ultrafine freq mp2/aug-cc-pvDZ
 ----------------------------------------------

 -----
 Str 5
 -----
 Symbolic Z-matrix:
 Charge =  2 Multiplicity = 1

 SCF Done:  E(RHF) =  -228.622477176     A.U. after   10 cycles
 E2 =    -0.6526754689D+00 EUMP2 =    -0.22927515264540D+03
 SCF Done:  E(RHF) =  -228.623088356     A.U. after    9 cycles
 E2 =    -0.6526897349D+00 EUMP2 =    -0.22927577809100D+03
 SCF Done:  E(RHF) =  -228.622687608     A.U. after    9 cycles
 E2 =    -0.6532107484D+00 EUMP2 =    -0.22927589835633D+03
 SCF Done:  E(RHF) =  -228.622608957     A.U. after    8 cycles
 E2 =    -0.6533094176D+00 EUMP2 =    -0.22927591837414D+03
 SCF Done:  E(RHF) =  -228.622635592     A.U. after    8 cycles
 E2 =    -0.6533142313D+00 EUMP2 =    -0.22927594982351D+03
 SCF Done:  E(RHF) =  -228.622805380     A.U. after    7 cycles
 E2 =    -0.6531561501D+00 EUMP2 =    -0.22927596152976D+03
 SCF Done:  E(RHF) =  -228.622975679     A.U. after    8 cycles
 E2 =    -0.6529905665D+00 EUMP2 =    -0.22927596624509D+03
 SCF Done:  E(RHF) =  -228.623037374     A.U. after    7 cycles
 E2 =    -0.6529301658D+00 EUMP2 =    -0.22927596753985D+03
 SCF Done:  E(RHF) =  -228.623052565     A.U. after   12 cycles
 E2 =    -0.6529157982D+00 EUMP2 =    -0.22927596836335D+03
 SCF Done:  E(RHF) =  -228.623034854     A.U. after    7 cycles
 E2 =    -0.6529342397D+00 EUMP2 =    -0.22927596909383D+03
 E2 =    -0.6529785165D+00 EUMP2 =    -0.22927596959634D+03
 E2 =    -0.6530265153D+00 EUMP2 =    -0.22927596988450D+03
 E2 =    -0.6530284775D+00 EUMP2 =    -0.22927596997733D+03
 E2 =    -0.6530291112D+00 EUMP2 =    -0.22927596999528D+03
 E2 =    -0.6530306673D+00 EUMP2 =    -0.22927597001797D+03
 E2 =    -0.6530202583D+00 EUMP2 =    -0.22927597005472D+03
 E2 =    -0.6530031167D+00 EUMP2 =    -0.22927597006196D+03
 E2 =    -0.6530023880D+00 EUMP2 =    -0.22927597022870D+03
 E2 =    -0.6530069675D+00 EUMP2 =    -0.22927597034037D+03
 SCF Done:  E(RHF) =  -228.622954102     A.U. after    7 cycles
 E2 =    -0.6530162679D+00 EUMP2 =    -0.22927597037009D+03
 SCF Done:  E(RHF) =  -228.622952284     A.U. after    7 cycles
 E2 =    -0.6530180662D+00 EUMP2 =    -0.22927597035040D+03
 SCF Done:  E(RHF) =  -228.622952501     A.U. after    7 cycles
 E2 =    -0.6530178897D+00 EUMP2 =    -0.22927597039067D+03
 SCF Done:  E(RHF) =  -228.622952084     A.U. after    6 cycles
 E2 =    -0.6530183104D+00 EUMP2 =    -0.22927597039464D+03
 SCF Done:  E(RHF) =  -228.622952104     A.U. after   12 cycles
 E2 =    -0.6530182997D+00 EUMP2 =    -0.22927597040415D+03
 SCF Done:  E(RHF) =  -228.622952063     A.U. after    6 cycles
 E2 =    -0.6530183420D+00 EUMP2 =    -0.22927597040491D+03
 SCF Done:  E(RHF) =  -228.622951943     A.U. after    6 cycles
 E2 =    -0.6530184625D+00 EUMP2 =    -0.22927597040539D+03
 SCF Done:  E(RHF) =  -228.622951838     A.U. after    6 cycles
 E2 =    -0.6530185673D+00 EUMP2 =    -0.22927597040555D+03
 SCF Done:  E(RHF) =  -228.622951856     A.U. after   12 cycles
 E2 =    -0.6530185510D+00 EUMP2 =    -0.22927597040729D+03
 Optimization completed.
    -- Stationary point found.
 Normal termination of Gaussian 03 at Tue May 18 15:05:08 2010.

 ----------------------------------------------------------------------
 #N Geom=AllCheck Guess=Read SCRF=Check GenChk RMP2(FC)/Aug-CC-pVDZ Fre
 q
 ----------------------------------------------------------------------

 Str 5
 -----
 Redundant internal coordinates taken from checkpoint file:
 ppW3-4.xyz.1.chk
 Charge =  2 Multiplicity = 1

                         Standard orientation:
 ---------------------------------------------------------------------
 Center     Atomic     Atomic              Coordinates (Angstroms)
 Number     Number      Type              X           Y           Z
 ---------------------------------------------------------------------
    1          8             0        0.001288    0.915175    0.000002
    2          8             0        2.440872   -0.536633    0.029266
    3          8             0       -2.442089   -0.535944   -0.029287
    4          1             0       -1.628823    0.047415    0.033191
    5          1             0       -0.013034    1.524669   -0.764344
    6          1             0        0.015844    1.524591    0.764407
    7          1             0        1.627741    0.047276   -0.033070
    8          1             0        2.799505   -0.794487   -0.848273
    9          1             0        3.152069   -0.148949    0.585676
   10          1             0       -3.152995   -0.147686   -0.585703
   11          1             0       -2.800875   -0.793616    0.848267
 ---------------------------------------------------------------------

 SCF Done:  E(RHF) =  -228.622951856     A.U. after    1 cycles
 E2 =    -0.6530185503D+00 EUMP2 =    -0.22927597040652D+03

 The electronic state is 1-A.
 Alpha  occ. eigenvalues --  -21.07937 -21.07915 -20.98185  -1.86923  -1.86881
 Alpha  occ. eigenvalues --   -1.75149  -1.20731  -1.20483  -1.20008  -1.19990
 Alpha  occ. eigenvalues --   -1.10111  -1.02495  -1.02406  -0.99383  -0.92024
 Alpha virt. eigenvalues --   -0.26298  -0.23449  -0.20261  -0.19905  -0.18015
 Alpha virt. eigenvalues --   -0.16253  -0.15966  -0.14539  -0.11873  -0.10046
 Alpha virt. eigenvalues --   -0.09693  -0.08831  -0.08105  -0.07307  -0.06722

 Mulliken atomic charges:
              1
     1  O   -0.653368
     2  O   -0.151692
     3  O   -0.151330
     4  H    0.502629
     5  H    0.284229
     6  H    0.284158
     7  H    0.503653
     8  H    0.343362
     9  H    0.347375
    10  H    0.347482
    11  H    0.343500
 Sum of Mulliken charges=   2.00000

 Dipole moment (field-independent basis, Debye):
    X=    -0.0083    Y=     1.2106    Z=     0.0004  Tot=     1.2106
 Quadrupole moment (field-independent basis, Debye-Ang):
   XX=    48.6298   YY=   -10.5472   ZZ=   -10.3806
   XY=    -0.0035   XZ=    -2.5531   YZ=    -0.0001

  Exact polarizability:  28.002  -0.007  21.401   0.132   0.000  21.190
 Approx polarizability:  18.756  -0.002  16.826   0.278   0.000  18.340

 ******    1 imaginary frequencies (negative Signs) ******

                     1                      2                      3
                     A                      A                      A
 Frequencies --   -11.4844                37.4899                50.7974
 Red. masses --     5.4213                 1.4291                 1.0270
 Frc consts  --     0.0004                 0.0012                 0.0016
 IR Inten    --   105.7957                 4.9393                75.2410

                     4                      5                      6
                     A                      A                      A
 Frequencies --    77.2211               168.8906               300.2659
 Red. masses --     2.2807                 4.0893                 1.0624
 Frc consts  --     0.0080                 0.0687                 0.0564
 IR Inten    --    12.9396                34.8610                67.4160

                     7                      8                      9
                     A                      A                      A
 Frequencies --   363.5570               423.5113               512.1321
 Red. masses --     1.0223                 1.0876                 1.0969
 Frc consts  --     0.0796                 0.1149                 0.1695
 IR Inten    --     2.8723                43.0564               124.0744

                    10                     11                     12
                     A                      A                      A
 Frequencies --   514.3041               677.7566               740.0741
 Red. masses --     1.1548                 1.0386                 1.1690
 Frc consts  --     0.1800                 0.2811                 0.3772
 IR Inten    --    24.7888                57.1615               167.9556

                    13                     14                     15
                     A                      A                      A
 Frequencies --   941.9199               951.0893              1643.0557
 Red. masses --     1.1103                 1.1152                 1.0793
 Frc consts  --     0.5804                 0.5944                 1.7168
 IR Inten    --   342.6847               429.1705               102.3872

                    16                     17                     18
                     A                      A                      A
 Frequencies --  1673.1648              1676.3441              1700.6554
 Red. masses --     1.0558                 1.0573                 1.0604
 Frc consts  --     1.7414                 1.7506                 1.8069
 IR Inten    --    99.3735                 0.0371               101.1832

                    19                     20                     21
                     A                      A                      A
 Frequencies --  1701.9855              3161.0682              3228.0336
 Red. masses --     1.0588                 1.0679                 1.0599
 Frc consts  --     1.8070                 6.2872                 6.5073
 IR Inten    --    16.3402              1797.0329               579.9185

                    22                     23                     24
                     A                      A                      A
 Frequencies --  3595.8143              3600.7572              3661.1925
 Red. masses --     1.0497                 1.0513                 1.0479
 Frc consts  --     7.9967                 8.0312                 8.2756
 IR Inten    --   651.8786                43.0485                48.6506

                    25                     26                     27
                     A                      A                      A
 Frequencies --  3677.4734              3678.1617              3748.9679
 Red. masses --     1.0881                 1.0881                 1.0804
 Frc consts  --     8.6703                 8.6735                 8.9466
 IR Inten    --   167.0144               682.1370               213.1878

 - Thermochemistry -
 -------------------
 Temperature   298.150 Kelvin.  Pressure   1.00000 Atm.
 Atom  1 has atomic number  8 and mass  15.99491

 Molecular mass:    56.04734 amu.
 Principal axes and moments of inertia in atomic units:
                           1         2         3
     EIGENVALUES --   113.98036 839.97474 930.07533
           X            0.99999  -0.00001  -0.00496
           Y            0.00001   1.00000   0.00000
           Z            0.00496   0.00000   0.99999
 This molecule is an asymmetric top.
 Rotational symmetry number  1.
 Rotational temperatures (Kelvin)      0.75990     0.10311     0.09313
 Rotational constants (GHZ):          15.83379     2.14857     1.94042
    1 imaginary frequencies ignored.
 Zero-point vibrational energy     254240.4 (Joules/Mol)
                                   60.76492 (Kcal/Mol)
 Warning -- explicit consideration of   9 degrees of freedom as
           vibrations may cause significant error
 Vibrational temperatures:     53.94    73.09   111.10   243.00   432.02
          (Kelvin)            523.08   609.34   736.84   739.97   975.14
                             1064.80  1355.21  1368.40  2363.99  2407.31
                             2411.88  2446.86  2448.77  4548.07  4644.41
                             5173.57  5180.68  5267.63  5291.06  5292.05
                             5393.92

 Zero-point correction=                           0.096835 (Hartree/Particle)
 Thermal correction to Energy=                    0.104557
 Thermal correction to Enthalpy=                  0.105501
 Thermal correction to Gibbs Free Energy=         0.064604
 Sum of electronic and zero-point Energies=           -229.179135
 Sum of electronic and thermal Energies=              -229.171414
 Sum of electronic and thermal Enthalpies=            -229.170470
 Sum of electronic and thermal Free Energies=         -229.211366

                     E (Thermal)             CV                S
                      KCal/Mol        Cal/Mol-Kelvin    Cal/Mol-Kelvin
 Total                   65.610             23.551             86.074
 Electronic               0.000              0.000              0.000
 Translational            0.889              2.981             37.992
 Rotational               0.889              2.981             25.990
 Vibrational             63.833             17.590             22.091
 Vibration  1             0.594              1.982              5.388
 Vibration  2             0.595              1.977              4.786
 Vibration  3             0.599              1.964              3.960
 Vibration  4             0.625              1.881              2.448
 Vibration  5             0.693              1.673              1.415
 Vibration  6             0.737              1.547              1.107
 Vibration  7             0.786              1.419              0.880
 Vibration  8             0.867              1.223              0.628
 Vibration  9             0.869              1.218              0.623

 Normal termination of Gaussian 03 at Tue May 18 15:13:40 2010.
