 Gaussian 03, Revision D.01,
 Gaussian 03:  AM64L-G03RevD.01 13-Oct-2005

 ----------------------------------------------
 # Opt=Tight Int=Ultrafine freq mp2/aug-cc-pvDZ
 ----------------------------------------------

 -----
 Str 5
 -----
 Symbolic Z-matrix:
 Charge =  2 Multiplicity = 1

 SCF Done:  E(RHF) =  -304.692112934     A.U. after   11 cycles
 E2 =    -0.8867334839D+00 EUMP2 =    -0.30557884641824D+03
 SCF Done:  E(RHF) =  -304.693038482     A.U. after    9 cycles
 E2 =    -0.8864453844D+00 EUMP2 =    -0.30557948386655D+03
 SCF Done:  E(RHF) =  -304.693308691     A.U. after    9 cycles
 E2 =    -0.8864903176D+00 EUMP2 =    -0.30557979900884D+03
 SCF Done:  E(RHF) =  -304.693690581     A.U. after    9 cycles
 E2 =    -0.8862508037D+00 EUMP2 =    -0.30557994138468D+03
 SCF Done:  E(RHF) =  -304.694890700     A.U. after    9 cycles
 E2 =    -0.8852704931D+00 EUMP2 =    -0.30558016119270D+03
 SCF Done:  E(RHF) =  -304.695653226     A.U. after    9 cycles
 E2 =    -0.8845791131D+00 EUMP2 =    -0.30558023233899D+03
 SCF Done:  E(RHF) =  -304.696045976     A.U. after    9 cycles
 E2 =    -0.8842048618D+00 EUMP2 =    -0.30558025083784D+03
 SCF Done:  E(RHF) =  -304.696210957     A.U. after    9 cycles
 E2 =    -0.8840487930D+00 EUMP2 =    -0.30558025974982D+03
 SCF Done:  E(RHF) =  -304.696308848     A.U. after    9 cycles
 E2 =    -0.8839604738D+00 EUMP2 =    -0.30558026932187D+03
 SCF Done:  E(RHF) =  -304.696284245     A.U. after    9 cycles
 E2 =    -0.8839931592D+00 EUMP2 =    -0.30558027740387D+03
 E2 =    -0.8840941531D+00 EUMP2 =    -0.30558028421144D+03
 E2 =    -0.8842088270D+00 EUMP2 =    -0.30558028950796D+03
 E2 =    -0.8842990985D+00 EUMP2 =    -0.30558029397846D+03
 E2 =    -0.8843416048D+00 EUMP2 =    -0.30558029739912D+03
 E2 =    -0.8843381897D+00 EUMP2 =    -0.30558029990439D+03
 E2 =    -0.8843086726D+00 EUMP2 =    -0.30558030169529D+03
 E2 =    -0.8842731376D+00 EUMP2 =    -0.30558030338877D+03
 E2 =    -0.8842439642D+00 EUMP2 =    -0.30558030482881D+03
 E2 =    -0.8842256550D+00 EUMP2 =    -0.30558030616857D+03
 E2 =    -0.8842306978D+00 EUMP2 =    -0.30558030706770D+03
 E2 =    -0.8842387794D+00 EUMP2 =    -0.30558030969716D+03
 E2 =    -0.8842392361D+00 EUMP2 =    -0.30558030974561D+03
 E2 =    -0.8842365162D+00 EUMP2 =    -0.30558030974628D+03
 E2 =    -0.8842350446D+00 EUMP2 =    -0.30558030974411D+03
 E2 =    -0.8842343648D+00 EUMP2 =    -0.30558030975900D+03
 E2 =    -0.8842350456D+00 EUMP2 =    -0.30558030975824D+03
 E2 =    -0.8842357245D+00 EUMP2 =    -0.30558030976190D+03
 E2 =    -0.8842372896D+00 EUMP2 =    -0.30558030976539D+03
 E2 =    -0.8842379672D+00 EUMP2 =    -0.30558030977039D+03
 E2 =    -0.8842379849D+00 EUMP2 =    -0.30558030977109D+03
 SCF Done:  E(RHF) =  -304.696072803     A.U. after    6 cycles
 E2 =    -0.8842369680D+00 EUMP2 =    -0.30558030977095D+03
 SCF Done:  E(RHF) =  -304.696073175     A.U. after    6 cycles
 E2 =    -0.8842365959D+00 EUMP2 =    -0.30558030977080D+03
 SCF Done:  E(RHF) =  -304.696073416     A.U. after    6 cycles
 E2 =    -0.8842363510D+00 EUMP2 =    -0.30558030976734D+03
 SCF Done:  E(RHF) =  -304.696073653     A.U. after    6 cycles
 E2 =    -0.8842361193D+00 EUMP2 =    -0.30558030977269D+03
 SCF Done:  E(RHF) =  -304.696073703     A.U. after    6 cycles
 E2 =    -0.8842360674D+00 EUMP2 =    -0.30558030977045D+03
 SCF Done:  E(RHF) =  -304.696073597     A.U. after    6 cycles
 E2 =    -0.8842361766D+00 EUMP2 =    -0.30558030977353D+03
 SCF Done:  E(RHF) =  -304.696073414     A.U. after    4 cycles
 E2 =    -0.8842363609D+00 EUMP2 =    -0.30558030977507D+03
 SCF Done:  E(RHF) =  -304.696073380     A.U. after    4 cycles
 E2 =    -0.8842363894D+00 EUMP2 =    -0.30558030976901D+03
 SCF Done:  E(RHF) =  -304.696073373     A.U. after    5 cycles
 E2 =    -0.8842363991D+00 EUMP2 =    -0.30558030977256D+03
 Optimization completed.
    -- Stationary point found.
 Normal termination of Gaussian 03 at Tue May 18 15:57:12 2010.

 ----------------------------------------------------------------------
 #N Geom=AllCheck Guess=Read SCRF=Check GenChk RMP2(FC)/Aug-CC-pVDZ Fre
 q
 ----------------------------------------------------------------------

 Str 5
 -----
 Redundant internal coordinates taken from checkpoint file:
 ppW3-4.xyz.2.chk
 Charge =  2 Multiplicity = 1

                         Standard orientation:
 ---------------------------------------------------------------------
 Center     Atomic     Atomic              Coordinates (Angstroms)
 Number     Number      Type              X           Y           Z
 ---------------------------------------------------------------------
    1          8             0       -0.865070    2.086458   -0.178379
    2          8             0        0.142090   -0.113931    0.634048
    3          8             0       -1.845839   -1.579414   -0.274322
    4          8             0        2.564767   -0.414967   -0.314028
    5          1             0       -1.230332    2.766776    0.410784
    6          1             0       -0.620540    2.560262   -0.989561
    7          1             0        0.157622   -0.083358    1.610096
    8          1             0       -0.176714    0.824527    0.345412
    9          1             0       -2.603145   -1.047119   -0.597020
   10          1             0       -1.101480   -1.012524    0.154859
   11          1             0       -2.170643   -2.308053    0.295417
   12          1             0        1.634015   -0.335334    0.124932
   13          1             0        3.251459    0.144070    0.106100
   14          1             0        2.892167   -1.334412   -0.399575
 ---------------------------------------------------------------------

 SCF Done:  E(RHF) =  -304.696073373     A.U. after    1 cycles
 E2 =    -0.8842363998D+00 EUMP2 =    -0.30558030977321D+03

 The electronic state is 1-A.
 Alpha  occ. eigenvalues --  -21.05114 -21.04940 -20.95765 -20.89847  -1.84234
 Alpha  occ. eigenvalues --   -1.84017  -1.73298  -1.67432  -1.18624  -1.17866
 Alpha  occ. eigenvalues --   -1.17627  -1.17508  -1.09587  -1.03411  -1.00090
 Alpha  occ. eigenvalues --   -0.99971  -0.98666  -0.90808  -0.89813  -0.83498
 Alpha virt. eigenvalues --   -0.24596  -0.21931  -0.19295  -0.18814  -0.17155
 Alpha virt. eigenvalues --   -0.15880  -0.15085  -0.13595  -0.12997  -0.12435
 Alpha virt. eigenvalues --   -0.10461  -0.08374  -0.07769  -0.07382  -0.06703

 Mulliken atomic charges:
              1
     1  O   -0.526918
     2  O   -1.000758
     3  O   -0.197255
     4  O   -0.209988
     5  H    0.231818
     6  H    0.224631
     7  H    0.312335
     8  H    0.595011
     9  H    0.331136
    10  H    0.610846
    11  H    0.331127
    12  H    0.632436
    13  H    0.343220
    14  H    0.322359
 Sum of Mulliken charges=   2.00000

 Dipole moment (field-independent basis, Debye):
    X=     1.1673    Y=    -2.8328    Z=     1.6284  Tot=     3.4697
 Quadrupole moment (field-independent basis, Debye-Ang):
   XX=    29.6692   YY=     5.6173   ZZ=   -17.9459
   XY=     2.3654   XZ=     0.6399   YZ=    -1.7300

  Exact polarizability:  36.874  -0.238  34.544   0.330  -0.567  28.522
 Approx polarizability:  25.454  -0.194  25.662  -0.035  -0.345  24.055

                     1                      2                      3
                     A                      A                      A
 Frequencies --    34.6705                51.5118                78.4087
 Red. masses --     4.5231                 2.3995                 1.0785
 Frc consts  --     0.0032                 0.0038                 0.0039
 IR Inten    --     4.2750                 8.6996                 9.0414

                     4                      5                      6
                     A                      A                      A
 Frequencies --    97.9524               111.1773               206.2419
 Red. masses --     4.1333                 1.3105                 1.0543
 Frc consts  --     0.0234                 0.0095                 0.0264
 IR Inten    --     6.6078                65.2939                23.5958

                     7                      8                      9
                     A                      A                      A
 Frequencies --   226.7861               236.0722               369.5472
 Red. masses --     4.8960                 4.0715                 2.7482
 Frc consts  --     0.1484                 0.1337                 0.2211
 IR Inten    --   195.6910                98.9368                27.0293

                    10                     11                     12
                     A                      A                      A
 Frequencies --   415.4768               429.1666               463.0741
 Red. masses --     1.2307                 1.0898                 1.0680
 Frc consts  --     0.1252                 0.1183                 0.1349
 IR Inten    --   243.2711                12.8442                 6.1970

                    13                     14                     15
                     A                      A                      A
 Frequencies --   477.7827               556.0965               583.7519
 Red. masses --     1.1143                 1.1142                 1.1377
 Frc consts  --     0.1499                 0.2030                 0.2284
 IR Inten    --    10.2801                62.6826               308.5198

                    16                     17                     18
                     A                      A                      A
 Frequencies --   711.9727               732.2467              1020.5787
 Red. masses --     1.1313                 1.1337                 1.0814
 Frc consts  --     0.3379                 0.3581                 0.6637
 IR Inten    --    16.4128               102.4722               175.6395

                    19                     20                     21
                     A                      A                      A
 Frequencies --  1101.2744              1180.1721              1641.7469
 Red. masses --     1.0839                 1.0511                 1.0813
 Frc consts  --     0.7745                 0.8625                 1.7172
 IR Inten    --   373.4255                94.3478                58.8977

                    22                     23                     24
                     A                      A                      A
 Frequencies --  1658.0349              1662.2163              1686.9211
 Red. masses --     1.0457                 1.0509                 1.0690
 Frc consts  --     1.6937                 1.7108                 1.7923
 IR Inten    --    21.7081                 1.4441                50.6843

                    25                     26                     27
                     A                      A                      A
 Frequencies --  1714.5569              1734.4544              2559.9305
 Red. masses --     1.0539                 1.0525                 1.0833
 Frc consts  --     1.8254                 1.8656                 4.1826
 IR Inten    --     4.7206                59.7968              2763.5272

                    28                     29                     30
                     A                      A                      A
 Frequencies --  2607.1515              2867.9815              3621.5129
 Red. masses --     1.0942                 1.0686                 1.0450
 Frc consts  --     4.3819                 5.1787                 8.0749
 IR Inten    --  3145.8713               605.8174               393.2359

                    31                     32                     33
                     A                      A                      A
 Frequencies --  3628.2549              3711.0002              3712.8129
 Red. masses --     1.0462                 1.0835                 1.0687
 Frc consts  --     8.1143                 8.7914                 8.6795
 IR Inten    --    93.6823               189.5891               336.4630

                    34                     35                     36
                     A                      A                      A
 Frequencies --  3716.2244              3742.0878              3847.3899
 Red. masses --     1.0877                 1.0458                 1.0825
 Frc consts  --     8.8500                 8.6280                 9.4406
 IR Inten    --   425.6724                70.0630               200.0671

 - Thermochemistry -
 -------------------
 Temperature   298.150 Kelvin.  Pressure   1.00000 Atm.
 Atom  1 has atomic number  8 and mass  15.99491

 Molecular mass:    74.05791 amu.
 Principal axes and moments of inertia in atomic units:
                           1         2         3
     EIGENVALUES --   539.92457 795.629001233.80547
           X            0.99999  -0.00327   0.00224
           Y            0.00329   0.99997  -0.00769
           Z           -0.00222   0.00770   0.99997
 This molecule is an asymmetric top.
 Rotational symmetry number  1.
 Warning -- assumption of classical behavior for rotation
           may cause significant error
 Rotational temperatures (Kelvin)      0.16042     0.10886     0.07020
 Rotational constants (GHZ):           3.34258     2.26832     1.46274
 Zero-point vibrational energy     318184.2 (Joules/Mol)
                                   76.04784 (Kcal/Mol)
 Warning -- explicit consideration of  15 degrees of freedom as
           vibrations may cause significant error
 Vibrational temperatures:     49.88    74.11   112.81   140.93   159.96
          (Kelvin)            296.74   326.29   339.65   531.70   597.78
                              617.47   666.26   687.42   800.10   839.89
                             1024.37  1053.54  1468.38  1584.49  1698.00
                             2362.10  2385.54  2391.56  2427.10  2466.86
                             2495.49  3683.16  3751.11  4126.38  5210.54
                             5220.24  5339.30  5341.90  5346.81  5384.02
                             5535.53

 Zero-point correction=                           0.121190 (Hartree/Particle)
 Thermal correction to Energy=                    0.131593
 Thermal correction to Enthalpy=                  0.132537
 Thermal correction to Gibbs Free Energy=         0.085263
 Sum of electronic and zero-point Energies=           -305.459120
 Sum of electronic and thermal Energies=              -305.448717
 Sum of electronic and thermal Enthalpies=            -305.447773
 Sum of electronic and thermal Free Energies=         -305.495046

                     E (Thermal)             CV                S
                      KCal/Mol        Cal/Mol-Kelvin    Cal/Mol-Kelvin
 Total                   82.576             33.060             99.495
 Electronic               0.000              0.000              0.000
 Translational            0.889              2.981             38.823
 Rotational               0.889              2.981             27.763
 Vibrational             80.798             27.099             32.910
 Vibration  1             0.594              1.983              5.542
 Vibration  2             0.596              1.977              4.758
 Vibration  3             0.600              1.964              3.930
 Vibration  4             0.603              1.951              3.495
 Vibration  5             0.607              1.940              3.248
 Vibration  6             0.641              1.831              2.077
 Vibration  7             0.650              1.800              1.904
 Vibration  8             0.655              1.786              1.832
 Vibration  9             0.742              1.535              1.082
 Vibration 10             0.779              1.437              0.907
 Vibration 11             0.791              1.407              0.861
 Vibration 12             0.821              1.332              0.757
 Vibration 13             0.834              1.299              0.716
 Vibration 14             0.912              1.126              0.532
 Vibration 15             0.941              1.066              0.478

 Normal termination of Gaussian 03 at Tue May 18 16:25:40 2010.
