 Gaussian 03, Revision D.01,
 Gaussian 03:  AM64L-G03RevD.01 13-Oct-2005

 ----------------------------------------------
 # Opt=Tight Int=Ultrafine freq mp2/aug-cc-pvDZ
 ----------------------------------------------

 -----
 Str 5
 -----
 Symbolic Z-matrix:
 Charge =  2 Multiplicity = 1

 SCF Done:  E(RHF) =  -304.701343081     A.U. after   10 cycles
 E2 =    -0.8831181300D+00 EUMP2 =    -0.30558446121079D+03
 SCF Done:  E(RHF) =  -304.702243245     A.U. after    9 cycles
 E2 =    -0.8827140873D+00 EUMP2 =    -0.30558495733236D+03
 SCF Done:  E(RHF) =  -304.702107821     A.U. after    9 cycles
 E2 =    -0.8830173023D+00 EUMP2 =    -0.30558512512378D+03
 SCF Done:  E(RHF) =  -304.701983921     A.U. after    8 cycles
 E2 =    -0.8831647398D+00 EUMP2 =    -0.30558514866077D+03
 SCF Done:  E(RHF) =  -304.701950674     A.U. after    8 cycles
 E2 =    -0.8832129749D+00 EUMP2 =    -0.30558516364907D+03
 SCF Done:  E(RHF) =  -304.702020948     A.U. after    7 cycles
 E2 =    -0.8831467862D+00 EUMP2 =    -0.30558516773433D+03
 SCF Done:  E(RHF) =  -304.702145802     A.U. after    7 cycles
 E2 =    -0.8830262414D+00 EUMP2 =    -0.30558517204354D+03
 SCF Done:  E(RHF) =  -304.702218918     A.U. after    7 cycles
 E2 =    -0.8829554141D+00 EUMP2 =    -0.30558517433227D+03
 SCF Done:  E(RHF) =  -304.702238979     A.U. after    7 cycles
 E2 =    -0.8829367605D+00 EUMP2 =    -0.30558517573984D+03
 SCF Done:  E(RHF) =  -304.702209601     A.U. after   12 cycles
 E2 =    -0.8829666289D+00 EUMP2 =    -0.30558517622943D+03
 E2 =    -0.8830082319D+00 EUMP2 =    -0.30558517641783D+03
 E2 =    -0.8830256482D+00 EUMP2 =    -0.30558517649438D+03
 E2 =    -0.8830336373D+00 EUMP2 =    -0.30558517651517D+03
 E2 =    -0.8830327141D+00 EUMP2 =    -0.30558517652498D+03
 E2 =    -0.8830313433D+00 EUMP2 =    -0.30558517652531D+03
 SCF Done:  E(RHF) =  -304.702145560     A.U. after    5 cycles
 E2 =    -0.8830309647D+00 EUMP2 =    -0.30558517652439D+03
 SCF Done:  E(RHF) =  -304.702145598     A.U. after    5 cycles
 E2 =    -0.8830309265D+00 EUMP2 =    -0.30558517652416D+03
 SCF Done:  E(RHF) =  -304.702145715     A.U. after    5 cycles
 E2 =    -0.8830308091D+00 EUMP2 =    -0.30558517652407D+03
 SCF Done:  E(RHF) =  -304.702145783     A.U. after    6 cycles
 E2 =    -0.8830307392D+00 EUMP2 =    -0.30558517652258D+03
 SCF Done:  E(RHF) =  -304.702145685     A.U. after    5 cycles
 E2 =    -0.8830308366D+00 EUMP2 =    -0.30558517652195D+03
 SCF Done:  E(RHF) =  -304.702145679     A.U. after   12 cycles
 E2 =    -0.8830308496D+00 EUMP2 =    -0.30558517652879D+03
 SCF Done:  E(RHF) =  -304.702145614     A.U. after    4 cycles
 E2 =    -0.8830309172D+00 EUMP2 =    -0.30558517653148D+03
 SCF Done:  E(RHF) =  -304.702145574     A.U. after    4 cycles
 E2 =    -0.8830309551D+00 EUMP2 =    -0.30558517652954D+03
 SCF Done:  E(RHF) =  -304.702145416     A.U. after    4 cycles
 E2 =    -0.8830311243D+00 EUMP2 =    -0.30558517653988D+03
 Optimization completed.
    -- Stationary point found.
 Normal termination of Gaussian 03 at Tue May 18 15:18:48 2010.

 ----------------------------------------------------------------------
 #N Geom=AllCheck Guess=Read SCRF=Check GenChk RMP2(FC)/Aug-CC-pVDZ Fre
 q
 ----------------------------------------------------------------------

 Str 5
 -----
 Redundant internal coordinates taken from checkpoint file:
 ppW3-4.xyz.3.chk
 Charge =  2 Multiplicity = 1

                         Standard orientation:
 ---------------------------------------------------------------------
 Center     Atomic     Atomic              Coordinates (Angstroms)
 Number     Number      Type              X           Y           Z
 ---------------------------------------------------------------------
    1          8             0        0.005761   -1.902286   -0.182894
    2          8             0        1.878734    0.005487    0.117302
    3          8             0       -0.005760    1.902286   -0.182892
    4          8             0       -1.878735   -0.005487    0.117293
    5          1             0       -0.820685   -1.370493    0.025896
    6          1             0        0.008521   -2.799813    0.209783
    7          1             0        0.828956   -1.365376    0.025853
    8          1             0        2.464086    0.007199    0.899770
    9          1             0        2.501928    0.007356   -0.636530
   10          1             0        0.820685    1.370493    0.025901
   11          1             0       -0.828956    1.365376    0.025850
   12          1             0       -0.008522    2.799813    0.209786
   13          1             0       -2.464090   -0.007200    0.899758
   14          1             0       -2.501924   -0.007355   -0.636542
 ---------------------------------------------------------------------

 SCF Done:  E(RHF) =  -304.702145416     A.U. after    1 cycles
 E2 =    -0.8830311032D+00 EUMP2 =    -0.30558517651874D+03

 The electronic state is 1-A.
 Alpha  occ. eigenvalues --  -21.05007 -21.05007 -20.97447 -20.97446  -1.84543
 Alpha  occ. eigenvalues --   -1.84287  -1.74808  -1.74563  -1.19412  -1.18784
 Alpha  occ. eigenvalues --   -1.18094  -1.17986  -1.09798  -1.09711  -1.01185
 Alpha  occ. eigenvalues --   -1.00150  -0.98667  -0.98266  -0.91802  -0.90929
 Alpha virt. eigenvalues --   -0.25141  -0.21219  -0.21057  -0.18717  -0.17786
 Alpha virt. eigenvalues --   -0.16096  -0.15838  -0.14989  -0.12517  -0.12422
 Alpha virt. eigenvalues --   -0.11028  -0.10860  -0.09952  -0.07746  -0.07604

 Mulliken atomic charges:
              1
     1  O   -0.182500
     2  O   -0.769266
     3  O   -0.182500
     4  O   -0.769266
     5  H    0.486534
     6  H    0.354901
     7  H    0.486760
     8  H    0.309554
     9  H    0.314017
    10  H    0.486534
    11  H    0.486760
    12  H    0.354901
    13  H    0.309554
    14  H    0.314017
 Sum of Mulliken charges=   2.00000

 Dipole moment (field-independent basis, Debye):
    X=     0.0000    Y=     0.0000    Z=     2.1639  Tot=     2.1639
 Quadrupole moment (field-independent basis, Debye-Ang):
   XX=     9.4132   YY=     9.5280   ZZ=   -20.3857
   XY=    -0.0029   XZ=     0.0001   YZ=     0.0000

  Exact polarizability:  36.106   0.003  35.569   0.000   0.000  26.516
 Approx polarizability:  26.076   0.003  25.161   0.000   0.000  23.371

                     1                      2                      3
                     A                      A                      A
 Frequencies --    60.6630                78.4039               123.3894
 Red. masses --     3.3340                 4.0984                 5.6439
 Frc consts  --     0.0072                 0.0148                 0.0506
 IR Inten    --     0.0215                 0.0000                 1.2258

                     4                      5                      6
                     A                      A                      A
 Frequencies --   193.7842               259.6368               264.0129
 Red. masses --     4.4431                 5.1908                 4.0865
 Frc consts  --     0.0983                 0.2062                 0.1678
 IR Inten    --    71.3526                 1.4535                71.8610

                     7                      8                      9
                     A                      A                      A
 Frequencies --   350.8485               352.3398               378.6328
 Red. masses --     1.0748                 1.0434                 1.0361
 Frc consts  --     0.0780                 0.0763                 0.0875
 IR Inten    --    37.9031               138.4893               122.8738

                    10                     11                     12
                     A                      A                      A
 Frequencies --   397.3746               473.6745               493.6395
 Red. masses --     1.0696                 1.0483                 1.2449
 Frc consts  --     0.0995                 0.1386                 0.1787
 IR Inten    --     0.0004                 0.0000                14.4711

                    13                     14                     15
                     A                      A                      A
 Frequencies --   545.4364               561.4638               722.5886
 Red. masses --     1.1067                 1.1045                 1.1791
 Frc consts  --     0.1940                 0.2051                 0.3627
 IR Inten    --    25.6016                11.4672               499.0075

                    16                     17                     18
                     A                      A                      A
 Frequencies --   730.1321               784.8240               848.5330
 Red. masses --     1.1371                 1.0772                 1.0296
 Frc consts  --     0.3571                 0.3909                 0.4368
 IR Inten    --     0.0001               101.3413                 0.0003

                    19                     20                     21
                     A                      A                      A
 Frequencies --  1036.4106              1052.9070              1610.5988
 Red. masses --     1.0683                 1.0949                 1.0380
 Frc consts  --     0.6761                 0.7152                 1.5865
 IR Inten    --     3.5813               528.1005                 0.0000

                    22                     23                     24
                     A                      A                      A
 Frequencies --  1622.1092              1641.9395              1658.6998
 Red. masses --     1.0609                 1.0845                 1.0654
 Frc consts  --     1.6447                 1.7227                 1.7270
 IR Inten    --   101.5049                 0.2284               102.3095

                    25                     26                     27
                     A                      A                      A
 Frequencies --  1710.3968              1759.6000              3077.0068
 Red. masses --     1.0664                 1.0570                 1.1116
 Frc consts  --     1.8381                 1.9283                 6.2008
 IR Inten    --   324.4073                 0.6301                 0.0007

                    28                     29                     30
                     A                      A                      A
 Frequencies --  3130.9420              3178.0551              3220.2198
 Red. masses --     1.0389                 1.0363                 1.0978
 Frc consts  --     6.0002                 6.1665                 6.7071
 IR Inten    --  1683.7934                38.6983              2981.0313

                    31                     32                     33
                     A                      A                      A
 Frequencies --  3655.5384              3659.9859              3672.5431
 Red. masses --     1.0487                 1.0466                 1.0716
 Frc consts  --     8.2565                 8.2603                 8.5155
 IR Inten    --    15.9508               130.6038               838.8463

                    34                     35                     36
                     A                      A                      A
 Frequencies --  3681.7260              3747.1492              3747.7711
 Red. masses --     1.0701                 1.0808                 1.0809
 Frc consts  --     8.5460                 8.9414                 8.9447
 IR Inten    --    25.6817                 0.0532               463.9867

 - Thermochemistry -
 -------------------
 Temperature   298.150 Kelvin.  Pressure   1.00000 Atm.
 Atom  1 has atomic number  8 and mass  15.99491

 Molecular mass:    74.05791 amu.
 Principal axes and moments of inertia in atomic units:
                           1         2         3
     EIGENVALUES --   511.16971 516.18977 998.53751
           X            0.99997   0.00732   0.00000
           Y           -0.00732   0.99997   0.00000
           Z            0.00000   0.00000   1.00000
 This molecule is an asymmetric top.
 Rotational symmetry number  1.
 Warning -- assumption of classical behavior for rotation
           may cause significant error
 Rotational temperatures (Kelvin)      0.16944     0.16779     0.08674
 Rotational constants (GHZ):           3.53061     3.49627     1.80738
 Zero-point vibrational energy     325880.6 (Joules/Mol)
                                   77.88733 (Kcal/Mol)
 Warning -- explicit consideration of  14 degrees of freedom as
           vibrations may cause significant error
 Vibrational temperatures:     87.28   112.81   177.53   278.81   373.56
          (Kelvin)            379.86   504.79   506.94   544.77   571.73
                              681.51   710.24   784.76   807.82  1039.64
                             1050.50  1129.19  1220.85  1491.16  1514.90
                             2317.29  2333.85  2362.38  2386.50  2460.88
                             2531.67  4427.12  4504.72  4572.51  4633.17
                             5259.50  5265.90  5283.96  5297.18  5391.31
                             5392.20

 Zero-point correction=                           0.124121 (Hartree/Particle)
 Thermal correction to Energy=                    0.133385
 Thermal correction to Enthalpy=                  0.134329
 Thermal correction to Gibbs Free Energy=         0.091215
 Sum of electronic and zero-point Energies=           -305.461055
 Sum of electronic and thermal Energies=              -305.451791
 Sum of electronic and thermal Enthalpies=            -305.450847
 Sum of electronic and thermal Free Energies=         -305.493961

                     E (Thermal)             CV                S
                      KCal/Mol        Cal/Mol-Kelvin    Cal/Mol-Kelvin
 Total                   83.701             31.857             90.741
 Electronic               0.000              0.000              0.000
 Translational            0.889              2.981             38.823
 Rotational               0.889              2.981             27.068
 Vibrational             81.923             25.896             24.850
 Vibration  1             0.597              1.973              4.436
 Vibration  2             0.600              1.964              3.930
 Vibration  3             0.610              1.930              3.047
 Vibration  4             0.635              1.849              2.191
 Vibration  5             0.668              1.746              1.664
 Vibration  6             0.671              1.739              1.635
 Vibration  7             0.728              1.574              1.162
 Vibration  8             0.729              1.570              1.156
 Vibration  9             0.749              1.516              1.045
 Vibration 10             0.764              1.476              0.972
 Vibration 11             0.830              1.308              0.727
 Vibration 12             0.849              1.264              0.674
 Vibration 13             0.901              1.150              0.554
 Vibration 14             0.917              1.115              0.521

 Normal termination of Gaussian 03 at Tue May 18 15:46:58 2010.
