 Gaussian 03, Revision D.01,
 Gaussian 03:  AM64L-G03RevD.01 13-Oct-2005

 --------------------------
 # opt freq mp2/aug-cc-pvDZ
 --------------------------

 -------------------
 Title Card Required
 -------------------
 Symbolic Z-matrix:
 Charge =  1 Multiplicity = 1

 SCF Done:  E(RHF) =  -76.0691865236     A.U. after   13 cycles
 E2 =    -0.2286746982D+00 EUMP2 =    -0.76297861221817D+02
 SCF Done:  E(RHF) =  -76.0745881277     A.U. after   11 cycles
 E2 =    -0.2308040938D+00 EUMP2 =    -0.76305392221500D+02
 SCF Done:  E(RHF) =  -76.0846431430     A.U. after   11 cycles
 E2 =    -0.2339232841D+00 EUMP2 =    -0.76318566427163D+02
 SCF Done:  E(RHF) =  -76.1060041597     A.U. after   11 cycles
 E2 =    -0.2374844192D+00 EUMP2 =    -0.76343488578877D+02
 SCF Done:  E(RHF) =  -76.1575258827     A.U. after   11 cycles
 E2 =    -0.2375665895D+00 EUMP2 =    -0.76395092472128D+02
 SCF Done:  E(RHF) =  -76.2592290293     A.U. after   11 cycles
 E2 =    -0.2263594114D+00 EUMP2 =    -0.76485588440737D+02
 SCF Done:  E(RHF) =  -76.2583159381     A.U. after   10 cycles
 E2 =    -0.2067196788D+00 EUMP2 =    -0.76465035616958D+02
 SCF Done:  E(RHF) =  -76.3148125961     A.U. after   11 cycles
 E2 =    -0.2139457944D+00 EUMP2 =    -0.76528758390439D+02
 SCF Done:  E(RHF) =  -76.3161498054     A.U. after   10 cycles
 E2 =    -0.2134308618D+00 EUMP2 =    -0.76529580667207D+02
 SCF Done:  E(RHF) =  -76.3169367009     A.U. after   10 cycles
 E2 =    -0.2130167104D+00 EUMP2 =    -0.76529953411321D+02
 SCF Done:  E(RHF) =  -76.3172121420     A.U. after   10 cycles
 E2 =    -0.2128379634D+00 EUMP2 =    -0.76530050105332D+02
 SCF Done:  E(RHF) =  -76.3172539550     A.U. after    9 cycles
 E2 =    -0.2128076187D+00 EUMP2 =    -0.76530061573687D+02
 Optimization completed.
    -- Stationary point found.
 Normal termination of Gaussian 03 at Fri Apr 20 21:10:49 2007.

 ----------------------------------------------------------------------
 #N Geom=AllCheck Guess=Read SCRF=Check GenChk RMP2(FC)/Aug-CC-pVDZ Fre
 q
 ----------------------------------------------------------------------

 Title Card Required
 -------------------
 Redundant internal coordinates taken from checkpoint file:
 pW1-MP2.chk
 Charge =  1 Multiplicity = 1

                         Standard orientation:
 ---------------------------------------------------------------------
 Center     Atomic     Atomic              Coordinates (Angstroms)
 Number     Number      Type              X           Y           Z
 ---------------------------------------------------------------------
    1          8             0        0.000158   -0.000200   -0.082340
    2          1             0       -0.246624    0.902378    0.219169
    3          1             0        0.904987   -0.237523    0.219924
    4          1             0       -0.659630   -0.663257    0.219625
 ---------------------------------------------------------------------

 SCF Done:  E(RHF) =  -76.3172539550     A.U. after    1 cycles
 E2 =    -0.2128076184D+00 EUMP2 =    -0.76530061573416D+02

 The electronic state is 1-A.
 Alpha  occ. eigenvalues --  -21.01200  -1.80163  -1.13060  -1.13005  -0.95549
 Alpha virt. eigenvalues --   -0.17302  -0.10374  -0.10370  -0.04217  -0.01428
 Alpha virt. eigenvalues --    0.01465   0.01493   0.02593   0.02598   0.09342
 Alpha virt. eigenvalues --    0.10846   0.10867   0.25059   0.28167   0.30368

 Mulliken atomic charges:
              1
     1  O   -0.085954
     2  H    0.361878
     3  H    0.362223
     4  H    0.361853
 Sum of Mulliken charges=   1.00000

 Dipole moment (field-independent basis, Debye):
    X=    -0.0023    Y=     0.0032    Z=     1.6274  Tot=     1.6274
 Quadrupole moment (field-independent basis, Debye-Ang):
   XX=    -2.4509   YY=    -2.4648   ZZ=    -6.1285
   XY=     0.0000   XZ=     0.0003   YZ=    -0.0004

  Exact polarizability:   7.015   0.000   7.010   0.000   0.001   5.720
 Approx polarizability:   5.828   0.000   5.823  -0.001   0.001   4.578

                     1                      2                      3
                     A                      A                      A
 Frequencies --   906.1007              1669.1040              1671.3892
 Red. masses --     1.1679                 1.0644                 1.0643
 Frc consts  --     0.5649                 1.7472                 1.7518
 IR Inten    --   417.0162                94.4624                94.1994

                     4                      5                      6
                     A                      A                      A
 Frequencies --  3548.7170              3676.4665              3678.0270
 Red. masses --     1.0200                 1.0878                 1.0880
 Frc consts  --     7.5681                 8.6632                 8.6715
 IR Inten    --    34.3552               459.7514               461.1421

 - Thermochemistry -
 -------------------
 Temperature   298.150 Kelvin.  Pressure   1.00000 Atm.
 Atom  1 has atomic number  8 and mass  15.99491

 Molecular mass:    19.01839 amu.
 Principal axes and moments of inertia in atomic units:
                           1         2         3
     EIGENVALUES --     5.54462   5.56017   9.44938
           X            1.00000   0.00003   0.00006
           Y           -0.00003   1.00000  -0.00007
           Z           -0.00006   0.00007   1.00000
 This molecule is an asymmetric top.
 Rotational symmetry number  1.
 Rotational temperatures (Kelvin)     15.62124    15.57754     9.16608
 Rotational constants (GHZ):         325.49427   324.58361   190.99043
 Zero-point vibrational energy      90616.0 (Joules/Mol)
                                   21.65773 (Kcal/Mol)
 Vibrational temperatures:   1303.68  2401.47  2404.75  5105.81  5289.61
          (Kelvin)           5291.85

 Zero-point correction=                           0.034514 (Hartree/Particle)
 Thermal correction to Energy=                    0.037404
 Thermal correction to Enthalpy=                  0.038348
 Thermal correction to Gibbs Free Energy=         0.015371
 Sum of electronic and zero-point Energies=            -76.495548
 Sum of electronic and thermal Energies=               -76.492658
 Sum of electronic and thermal Enthalpies=             -76.491713
 Sum of electronic and thermal Free Energies=          -76.514691

                     E (Thermal)             CV                S
                      KCal/Mol        Cal/Mol-Kelvin    Cal/Mol-Kelvin
 Total                   23.471              6.535             48.359
 Electronic               0.000              0.000              0.000
 Translational            0.889              2.981             34.771
 Rotational               0.889              2.981             13.441
 Vibrational             21.694              0.573              0.148

 Optimization completed.
    -- Stationary point found.
 Normal termination of Gaussian 03 at Fri Apr 20 21:11:47 2007.
