 Gaussian 03, Revision D.01,
 Gaussian 03:  AM64L-G03RevD.01 13-Oct-2005

 --------------------------
 # opt freq mp2/aug-cc-pvDZ
 --------------------------

 -------------------
 Title Card Required
 -------------------
 Symbolic Z-matrix:
 Charge =  1 Multiplicity = 1

 SCF Done:  E(RHF) =  -152.404848582     A.U. after   10 cycles
 E2 =    -0.4399159948D+00 EUMP2 =    -0.15284476457644D+03
 SCF Done:  E(RHF) =  -152.404121265     A.U. after    8 cycles
 E2 =    -0.4410666329D+00 EUMP2 =    -0.15284518789835D+03
 SCF Done:  E(RHF) =  -152.404141461     A.U. after    8 cycles
 E2 =    -0.4410770464D+00 EUMP2 =    -0.15284521850722D+03
 SCF Done:  E(RHF) =  -152.404273662     A.U. after    8 cycles
 E2 =    -0.4409576107D+00 EUMP2 =    -0.15284523127251D+03
 SCF Done:  E(RHF) =  -152.404358297     A.U. after    8 cycles
 E2 =    -0.4408746820D+00 EUMP2 =    -0.15284523297874D+03
 SCF Done:  E(RHF) =  -152.404387904     A.U. after    7 cycles
 E2 =    -0.4408453055D+00 EUMP2 =    -0.15284523320983D+03
 SCF Done:  E(RHF) =  -152.404387327     A.U. after    6 cycles
 E2 =    -0.4408459045D+00 EUMP2 =    -0.15284523323164D+03
 Optimization completed.
    -- Stationary point found.
 Normal termination of Gaussian 03 at Mon Apr 16 21:22:33 2007.

 ----------------------------------------------------------------------
 #N Geom=AllCheck Guess=Read SCRF=Check GenChk RMP2(FC)/Aug-CC-pVDZ Fre
 q
 ----------------------------------------------------------------------

 Title Card Required
 -------------------
 Redundant internal coordinates taken from checkpoint file:
 pW2-MP2.chk
 Charge =  1 Multiplicity = 1

                         Standard orientation:
 ---------------------------------------------------------------------
 Center     Atomic     Atomic              Coordinates (Angstroms)
 Number     Number      Type              X           Y           Z
 ---------------------------------------------------------------------
    1          8             0       -1.198150   -0.040404    0.061040
    2          8             0        1.198152   -0.040408   -0.061041
    3          1             0       -1.649816   -0.439386   -0.702450
    4          1             0        0.000011    0.030462   -0.000017
    5          1             0        1.695521    0.747386   -0.338452
    6          1             0        1.649785   -0.439363    0.702482
    7          1             0       -1.695513    0.747397    0.338443
 ---------------------------------------------------------------------

 SCF Done:  E(RHF) =  -152.404387327     A.U. after    1 cycles
 E2 =    -0.4408459064D+00 EUMP2 =    -0.15284523323357D+03

 The electronic state is 1-A.
 Alpha  occ. eigenvalues --  -20.86954 -20.86952  -1.67341  -1.64014  -1.04419
 Alpha  occ. eigenvalues --   -1.00852  -1.00759  -0.86657  -0.81998  -0.79773
 Alpha virt. eigenvalues --   -0.12820  -0.09509  -0.07555  -0.07220  -0.04427
 Alpha virt. eigenvalues --    0.00702   0.00797   0.02700   0.04044   0.06005
 Alpha virt. eigenvalues --    0.06216   0.08025   0.09157   0.10699   0.11635

 Mulliken atomic charges:
              1
     1  O   -0.417260
     2  O   -0.417242
     3  H    0.254289
     4  H    0.777105
     5  H    0.274408
     6  H    0.254295
     7  H    0.274405
 Sum of Mulliken charges=   1.00000

 Dipole moment (field-independent basis, Debye):
    X=     0.0001    Y=     1.4926    Z=     0.0000  Tot=     1.4926
 Quadrupole moment (field-independent basis, Debye-Ang):
   XX=     3.2507   YY=    -9.4030   ZZ=   -10.2641
   XY=     0.0001   XZ=     3.1196   YZ=     0.0000

  Exact polarizability:  20.356   0.000  14.121   0.500   0.000  13.855
 Approx polarizability:  13.792   0.000  11.813   0.477   0.000  11.497

                     1                      2                      3
                     A                      A                      A
 Frequencies --   181.7514               276.3287               445.1690
 Red. masses --     1.0350                 1.0995                 1.1315
 Frc consts  --     0.0201                 0.0495                 0.1321
 IR Inten    --    36.9511               461.0995               164.7489

                     4                      5                      6
                     A                      A                      A
 Frequencies --   515.9571               517.5648               607.3312
 Red. masses --     1.1547                 1.0728                 4.5688
 Frc consts  --     0.1811                 0.1693                 0.9929
 IR Inten    --    38.6911               100.2131                 0.2779

                     7                      8                      9
                     A                      A                      A
 Frequencies --   808.7458              1464.1267              1527.5822
 Red. masses --     1.0761                 1.0670                 1.0662
 Frc consts  --     0.4147                 1.3476                 1.4659
 IR Inten    --  2890.7468               258.4332                95.6566

                    10                     11                     12
                     A                      A                      A
 Frequencies --  1690.9633              1746.8234              3718.3924
 Red. masses --     1.0722                 1.0854                 1.0426
 Frc consts  --     1.8063                 1.9514                 8.4931
 IR Inten    --     2.3927               884.2236               241.3119

                    13                     14                     15
                     A                      A                      A
 Frequencies --  3725.5990              3831.8065              3832.3587
 Red. masses --     1.0454                 1.0857                 1.0858
 Frc consts  --     8.5494                 9.3923                 9.3956
 IR Inten    --     9.0487               238.0317               316.4176

 - Thermochemistry -
 -------------------
 Temperature   298.150 Kelvin.  Pressure   1.00000 Atm.
 Atom  1 has atomic number  8 and mass  15.99491

 Molecular mass:    37.02895 amu.
 Principal axes and moments of inertia in atomic units:
                           1         2         3
     EIGENVALUES --    10.27662 209.08239 209.92691
           X            0.99978   0.00000   0.02076
           Y            0.00000   1.00000  -0.00001
           Z           -0.02076   0.00001   0.99978
 This molecule is an asymmetric top.
 Rotational symmetry number  1.
 Rotational temperatures (Kelvin)      8.42824     0.41426     0.41259
 Rotational constants (GHZ):         175.61626     8.63172     8.59700
 Zero-point vibrational energy     148878.3 (Joules/Mol)
                                   35.58276 (Kcal/Mol)
 Warning -- explicit consideration of   6 degrees of freedom as
           vibrations may cause significant error
 Vibrational temperatures:    261.50   397.57   640.50   742.35   744.66
          (Kelvin)            873.81  1163.60  2106.55  2197.85  2432.92
                             2513.29  5349.93  5360.30  5513.11  5513.90

 Zero-point correction=                           0.056705 (Hartree/Particle)
 Thermal correction to Energy=                    0.061516
 Thermal correction to Enthalpy=                  0.062460
 Thermal correction to Gibbs Free Energy=         0.032014
 Sum of electronic and zero-point Energies=           -152.788529
 Sum of electronic and thermal Energies=              -152.783718
 Sum of electronic and thermal Enthalpies=            -152.782773
 Sum of electronic and thermal Free Energies=         -152.813219

                     E (Thermal)             CV                S
                      KCal/Mol        Cal/Mol-Kelvin    Cal/Mol-Kelvin
 Total                   38.602             15.215             64.079
 Electronic               0.000              0.000              0.000
 Translational            0.889              2.981             36.757
 Rotational               0.889              2.981             20.739
 Vibrational             36.824              9.253              6.583
 Vibration  1             0.630              1.865              2.310
 Vibration  2             0.678              1.717              1.556
 Vibration  3             0.805              1.372              0.811
 Vibration  4             0.871              1.215              0.619
 Vibration  5             0.873              1.211              0.616
 Vibration  6             0.966              1.016              0.437

 Optimization completed.
    -- Stationary point found.
 Normal termination of Gaussian 03 at Mon Apr 16 21:26:33 2007.
