 Gaussian 03, Revision D.01,
 Gaussian 03:  AM64L-G03RevD.01 13-Oct-2005

 --------------------------
 # opt freq mp2/aug-cc-pvDZ
 --------------------------

 -------------------
 Title Card Required
 -------------------
 Symbolic Z-matrix:
 Charge =  1 Multiplicity = 1

 SCF Done:  E(RHF) =  -228.478936946     A.U. after   10 cycles
 E2 =    -0.6638406555D+00 EUMP2 =    -0.22914277760142D+03
 SCF Done:  E(RHF) =  -228.479053920     A.U. after    9 cycles
 E2 =    -0.6644379846D+00 EUMP2 =    -0.22914349190422D+03
 SCF Done:  E(RHF) =  -228.479247270     A.U. after    9 cycles
 E2 =    -0.6643793289D+00 EUMP2 =    -0.22914362659850D+03
 SCF Done:  E(RHF) =  -228.479787411     A.U. after    9 cycles
 E2 =    -0.6639560774D+00 EUMP2 =    -0.22914374348836D+03
 SCF Done:  E(RHF) =  -228.480216060     A.U. after    9 cycles
 E2 =    -0.6635697488D+00 EUMP2 =    -0.22914378580837D+03
 SCF Done:  E(RHF) =  -228.480515142     A.U. after    9 cycles
 E2 =    -0.6632884251D+00 EUMP2 =    -0.22914380356685D+03
 SCF Done:  E(RHF) =  -228.480607462     A.U. after    9 cycles
 E2 =    -0.6632028704D+00 EUMP2 =    -0.22914381033229D+03
 SCF Done:  E(RHF) =  -228.480662618     A.U. after    9 cycles
 E2 =    -0.6631545684D+00 EUMP2 =    -0.22914381718618D+03
 SCF Done:  E(RHF) =  -228.480645517     A.U. after    8 cycles
 E2 =    -0.6631775579D+00 EUMP2 =    -0.22914382307500D+03
 SCF Done:  E(RHF) =  -228.480587605     A.U. after    8 cycles
 E2 =    -0.6632401696D+00 EUMP2 =    -0.22914382777478D+03
 E2 =    -0.6632915192D+00 EUMP2 =    -0.22914383063641D+03
 SCF Done:  E(RHF) =  -228.480519103     A.U. after    7 cycles
 E2 =    -0.6633137498D+00 EUMP2 =    -0.22914383285299D+03
 SCF Done:  E(RHF) =  -228.480530708     A.U. after    7 cycles
 E2 =    -0.6633042256D+00 EUMP2 =    -0.22914383493397D+03
 SCF Done:  E(RHF) =  -228.480570883     A.U. after    7 cycles
 E2 =    -0.6632662975D+00 EUMP2 =    -0.22914383718020D+03
 SCF Done:  E(RHF) =  -228.480627261     A.U. after    8 cycles
 E2 =    -0.6632119934D+00 EUMP2 =    -0.22914383925399D+03
 SCF Done:  E(RHF) =  -228.480677719     A.U. after    8 cycles
 E2 =    -0.6631631039D+00 EUMP2 =    -0.22914384082248D+03
 SCF Done:  E(RHF) =  -228.480689733     A.U. after    7 cycles
 E2 =    -0.6631519362D+00 EUMP2 =    -0.22914384166879D+03
 SCF Done:  E(RHF) =  -228.480671048     A.U. after    7 cycles
 E2 =    -0.6631710398D+00 EUMP2 =    -0.22914384208824D+03
 SCF Done:  E(RHF) =  -228.480641079     A.U. after    7 cycles
 E2 =    -0.6632010683D+00 EUMP2 =    -0.22914384214712D+03
 SCF Done:  E(RHF) =  -228.480636489     A.U. after    7 cycles
 E2 =    -0.6632058191D+00 EUMP2 =    -0.22914384230823D+03
 Optimization completed.
    -- Stationary point found.
 Normal termination of Gaussian 03 at Fri Apr 20 15:12:01 2007.

 ----------------------------------------------------------------------
 #N Geom=AllCheck Guess=Read SCRF=Check GenChk RMP2(FC)/Aug-CC-pVDZ Fre
 q
 ----------------------------------------------------------------------

 Title Card Required
 -------------------
 Redundant internal coordinates taken from checkpoint file:
 pW3-MP2.chk
 Charge =  1 Multiplicity = 1

                         Standard orientation:
 ---------------------------------------------------------------------
 Center     Atomic     Atomic              Coordinates (Angstroms)
 Number     Number      Type              X           Y           Z
 ---------------------------------------------------------------------
    1          8             0       -0.000001    0.828293    0.037909
    2          8             0       -2.200605   -0.364846   -0.003654
    3          8             0        2.200605   -0.364846   -0.003653
    4          1             0       -0.878698    0.283448   -0.007893
    5          1             0        0.878697    0.283449   -0.007891
    6          1             0       -2.499414   -1.079094   -0.583943
    7          1             0       -2.775754   -0.374312    0.775050
    8          1             0        2.775756   -0.374314    0.775050
    9          1             0        2.499419   -1.079085   -0.583950
   10          1             0        0.000000    1.551103   -0.611236
 ---------------------------------------------------------------------

 SCF Done:  E(RHF) =  -228.480636489     A.U. after    1 cycles
 E2 =    -0.6632058145D+00 EUMP2 =    -0.22914384230370D+03

 The electronic state is 1-A.
 Alpha  occ. eigenvalues --  -20.85096 -20.78858 -20.78857  -1.65032  -1.57040
 Alpha  occ. eigenvalues --   -1.56568  -1.01222  -0.99658  -0.93113  -0.93050
 Alpha  occ. eigenvalues --   -0.83770  -0.79122  -0.78604  -0.72704  -0.72672
 Alpha virt. eigenvalues --   -0.10615  -0.07947  -0.07177  -0.06291  -0.04216
 Alpha virt. eigenvalues --   -0.03362  -0.02615   0.02700   0.03853   0.04641
 Alpha virt. eigenvalues --    0.05291   0.06558   0.08035   0.08644   0.09076

 Mulliken atomic charges:
              1
     1  O   -0.341939
     2  O   -0.514702
     3  O   -0.514703
     4  H    0.617728
     5  H    0.617727
     6  H    0.228360
     7  H    0.207880
     8  H    0.207880
     9  H    0.228360
    10  H    0.263407
 Sum of Mulliken charges=   1.00000

 Dipole moment (field-independent basis, Debye):
    X=     0.0000    Y=    -1.1282    Z=    -0.5799  Tot=     1.2685
 Quadrupole moment (field-independent basis, Debye-Ang):
   XX=     7.6313   YY=   -11.7774   ZZ=   -14.7275
   XY=     0.0000   XZ=     0.0000   YZ=    -0.2795

  Exact polarizability:  30.627   0.000  24.014   0.000   0.073  22.189
 Approx polarizability:  20.074   0.000  18.738   0.000   0.495  18.695

                     1                      2                      3
                     A                      A                      A
 Frequencies --    71.9670                86.7806               116.4345
 Red. masses --     5.0391                 1.0628                 1.1963
 Frc consts  --     0.0154                 0.0047                 0.0096
 IR Inten    --    14.8412                37.1296                19.2658

                     4                      5                      6
                     A                      A                      A
 Frequencies --   157.3968               205.3210               332.7644
 Red. masses --     1.1245                 1.0909                 3.5954
 Frc consts  --     0.0164                 0.0271                 0.2346
 IR Inten    --    79.3323               343.1566                12.4497

                     7                      8                      9
                     A                      A                      A
 Frequencies --   380.5522               382.2295               396.7010
 Red. masses --     4.6405                 1.1496                 1.0736
 Frc consts  --     0.3960                 0.0990                 0.0995
 IR Inten    --   254.2513               166.8827                 4.9960

                    10                     11                     12
                     A                      A                      A
 Frequencies --   476.0590               570.8535              1090.2236
 Red. masses --     1.2180                 1.0228                 1.0451
 Frc consts  --     0.1626                 0.1964                 0.7318
 IR Inten    --     9.3019                 7.6075                83.9660

                    13                     14                     15
                     A                      A                      A
 Frequencies --  1224.9850              1601.3051              1628.0646
 Red. masses --     1.0724                 1.0777                 1.1021
 Frc consts  --     0.9481                 1.6282                 1.7212
 IR Inten    --   225.2757                38.1367                 9.7314

                    16                     17                     18
                     A                      A                      A
 Frequencies --  1660.6828              1694.4597              2542.6092
 Red. masses --     1.0326                 1.0647                 1.1352
 Frc consts  --     1.6778                 1.8011                 4.3238
 IR Inten    --     8.0736                 3.1447              4084.7899

                    19                     20                     21
                     A                      A                      A
 Frequencies --  2669.0855              3779.2762              3779.6282
 Red. masses --     1.0449                 1.0446                 1.0458
 Frc consts  --     4.3858                 8.7904                 8.8023
 IR Inten    --   987.2918                87.9356               115.4989

                    22                     23                     24
                     A                      A                      A
 Frequencies --  3788.4411              3898.3967              3898.9785
 Red. masses --     1.0657                 1.0839                 1.0840
 Frc consts  --     9.0114                 9.7058                 9.7089
 IR Inten    --   157.1992                10.9043               377.1907

 - Thermochemistry -
 -------------------
 Temperature   298.150 Kelvin.  Pressure   1.00000 Atm.
 Atom  1 has atomic number  8 and mass  15.99491

 Molecular mass:    55.03952 amu.
 Principal axes and moments of inertia in atomic units:
                           1         2         3
     EIGENVALUES --    81.18493 667.38756 732.19410
           X            1.00000   0.00000   0.00000
           Y            0.00000   0.99989  -0.01470
           Z            0.00000   0.01470   0.99989
 This molecule is an asymmetric top.
 Rotational symmetry number  1.
 Rotational temperatures (Kelvin)      1.06687     0.12978     0.11829
 Rotational constants (GHZ):          22.23000     2.70419     2.46484
 Zero-point vibrational energy     217918.9 (Joules/Mol)
                                   52.08387 (Kcal/Mol)
 Warning -- explicit consideration of  11 degrees of freedom as
           vibrations may cause significant error
 Vibrational temperatures:    103.54   124.86   167.52   226.46   295.41
          (Kelvin)            478.77   547.53   549.94   570.76   684.94
                              821.33  1568.59  1762.48  2303.92  2342.42
                             2389.35  2437.95  3658.24  3840.21  5437.53
                             5438.04  5450.72  5608.92  5609.75

 Zero-point correction=                           0.083001 (Hartree/Particle)
 Thermal correction to Energy=                    0.091090
 Thermal correction to Enthalpy=                  0.092035
 Thermal correction to Gibbs Free Energy=         0.051924
 Sum of electronic and zero-point Energies=           -229.060841
 Sum of electronic and thermal Energies=              -229.052752
 Sum of electronic and thermal Enthalpies=            -229.051808
 Sum of electronic and thermal Free Energies=         -229.091918

                     E (Thermal)             CV                S
                      KCal/Mol        Cal/Mol-Kelvin    Cal/Mol-Kelvin
 Total                   57.160             24.714             84.420
 Electronic               0.000              0.000              0.000
 Translational            0.889              2.981             37.938
 Rotational               0.889              2.981             25.187
 Vibrational             55.383             18.752             21.295
 Vibration  1             0.598              1.967              4.099
 Vibration  2             0.601              1.958              3.731
 Vibration  3             0.608              1.936              3.159
 Vibration  4             0.621              1.894              2.581
 Vibration  5             0.640              1.832              2.085
 Vibration  6             0.715              1.610              1.247
 Vibration  7             0.750              1.512              1.037
 Vibration  8             0.752              1.508              1.030
 Vibration  9             0.763              1.477              0.975
 Vibration 10             0.833              1.303              0.721
 Vibration 11             0.927              1.094              0.503

 Optimization completed.
    -- Stationary point found.
 Normal termination of Gaussian 03 at Fri Apr 20 15:57:39 2007.
