 Gaussian 03, Revision D.01,
 Gaussian 03:  AM64L-G03RevD.01 13-Oct-2005

 --------------------------
 # opt freq mp2/aug-cc-pvDZ
 --------------------------

 -------------------
 Title Card Required
 -------------------
 Symbolic Z-matrix:
 Charge =  1 Multiplicity = 1

 SCF Done:  E(RHF) =  -304.547715958     A.U. after   10 cycles
 E2 =    -0.8866474860D+00 EUMP2 =    -0.30543436344365D+03
 SCF Done:  E(RHF) =  -304.549689570     A.U. after   10 cycles
 E2 =    -0.8863466385D+00 EUMP2 =    -0.30543603620879D+03
 SCF Done:  E(RHF) =  -304.549307555     A.U. after   10 cycles
 E2 =    -0.8871296510D+00 EUMP2 =    -0.30543643720598D+03
 SCF Done:  E(RHF) =  -304.548924652     A.U. after    9 cycles
 E2 =    -0.8877213645D+00 EUMP2 =    -0.30543664601686D+03
 SCF Done:  E(RHF) =  -304.549003740     A.U. after    9 cycles
 E2 =    -0.8877072701D+00 EUMP2 =    -0.30543671100982D+03
 SCF Done:  E(RHF) =  -304.549351130     A.U. after    9 cycles
 E2 =    -0.8874114173D+00 EUMP2 =    -0.30543676254677D+03
 SCF Done:  E(RHF) =  -304.549697816     A.U. after    9 cycles
 E2 =    -0.8870844039D+00 EUMP2 =    -0.30543678222037D+03
 SCF Done:  E(RHF) =  -304.549928563     A.U. after    9 cycles
 E2 =    -0.8868615284D+00 EUMP2 =    -0.30543679009107D+03
 SCF Done:  E(RHF) =  -304.549995521     A.U. after    9 cycles
 E2 =    -0.8867973088D+00 EUMP2 =    -0.30543679282997D+03
 SCF Done:  E(RHF) =  -304.549991669     A.U. after    8 cycles
 E2 =    -0.8868024436D+00 EUMP2 =    -0.30543679411269D+03
 E2 =    -0.8868276608D+00 EUMP2 =    -0.30543679522864D+03
 E2 =    -0.8868723031D+00 EUMP2 =    -0.30543679660824D+03
 E2 =    -0.8869037579D+00 EUMP2 =    -0.30543679776677D+03
 E2 =    -0.8869068825D+00 EUMP2 =    -0.30543679857072D+03
 E2 =    -0.8868944819D+00 EUMP2 =    -0.30543679904501D+03
 E2 =    -0.8868664611D+00 EUMP2 =    -0.30543680011610D+03
 E2 =    -0.8868259410D+00 EUMP2 =    -0.30543680143943D+03
 E2 =    -0.8867719160D+00 EUMP2 =    -0.30543680347327D+03
 SCF Done:  E(RHF) =  -304.550049370     A.U. after   10 cycles
 E2 =    -0.8867557055D+00 EUMP2 =    -0.30543680507579D+03
 SCF Done:  E(RHF) =  -304.550046086     A.U. after   10 cycles
 E2 =    -0.8867605088D+00 EUMP2 =    -0.30543680659436D+03
 SCF Done:  E(RHF) =  -304.550021511     A.U. after    9 cycles
 E2 =    -0.8867861371D+00 EUMP2 =    -0.30543680764804D+03
 SCF Done:  E(RHF) =  -304.549984190     A.U. after    9 cycles
 E2 =    -0.8868240974D+00 EUMP2 =    -0.30543680828743D+03
 SCF Done:  E(RHF) =  -304.549970580     A.U. after   12 cycles
 E2 =    -0.8868378629D+00 EUMP2 =    -0.30543680844322D+03
 SCF Done:  E(RHF) =  -304.549960122     A.U. after   12 cycles
 E2 =    -0.8868446098D+00 EUMP2 =    -0.30543680473200D+03
 SCF Done:  E(RHF) =  -304.549967592     A.U. after   12 cycles
 E2 =    -0.8868403687D+00 EUMP2 =    -0.30543680796065D+03
 SCF Done:  E(RHF) =  -304.549970488     A.U. after   12 cycles
 E2 =    -0.8868379578D+00 EUMP2 =    -0.30543680844626D+03
 SCF Done:  E(RHF) =  -304.549973757     A.U. after   10 cycles
 E2 =    -0.8868347802D+00 EUMP2 =    -0.30543680853685D+03
 Optimization completed.
    -- Stationary point found.
 Normal termination of Gaussian 03 at Mon May  7 20:25:32 2007.

 ----------------------------------------------------------------------
 #N Geom=AllCheck Guess=Read SCRF=Check GenChk RMP2(FC)/Aug-CC-pVDZ Fre
 q
 ----------------------------------------------------------------------

 Title Card Required
 -------------------
 Redundant internal coordinates taken from checkpoint file:
 pW4-MP2.chk
 Charge =  1 Multiplicity = 1

                         Standard orientation:
 ---------------------------------------------------------------------
 Center     Atomic     Atomic              Coordinates (Angstroms)
 Number     Number      Type              X           Y           Z
 ---------------------------------------------------------------------
    1          8             0       -0.780820    2.360333    0.144993
    2          8             0        0.000035   -0.000024   -0.489752
    3          8             0       -1.653792   -1.856324    0.144989
    4          8             0        2.434582   -0.503985    0.145000
    5          1             0       -0.988030    3.000395   -0.550932
    6          1             0       -2.104391   -2.355833   -0.550985
    7          1             0       -1.331259    2.606038    0.901829
    8          1             0        3.092495   -0.644451   -0.550951
    9          1             0       -0.347593    0.907785   -0.204899
   10          1             0       -0.612343   -0.754959   -0.204847
   11          1             0       -1.591525   -2.455821    0.901876
   12          1             0        0.960016   -0.152865   -0.204836
   13          1             0        2.922590   -0.150285    0.901900
 ---------------------------------------------------------------------

 SCF Done:  E(RHF) =  -304.549973757     A.U. after    1 cycles
 E2 =    -0.8868347755D+00 EUMP2 =    -0.30543680853206D+03

 The electronic state is 1-A.
 Alpha  occ. eigenvalues --  -20.80802 -20.76341 -20.76341 -20.76341  -1.61250
 Alpha  occ. eigenvalues --   -1.54336  -1.54336  -1.53762  -0.97022  -0.97022
 Alpha  occ. eigenvalues --   -0.90316  -0.90250  -0.90250  -0.81548  -0.76624
 Alpha  occ. eigenvalues --   -0.76624  -0.75631  -0.70171  -0.69899  -0.69899
 Alpha virt. eigenvalues --   -0.09143  -0.06908  -0.06908  -0.05653  -0.03578
 Alpha virt. eigenvalues --   -0.03578  -0.02445  -0.01461  -0.01460   0.04840
 Alpha virt. eigenvalues --    0.05600   0.06295   0.06295   0.09074   0.09074

 Mulliken atomic charges:
              1
     1  O   -0.502571
     2  O   -0.374974
     3  O   -0.502576
     4  O   -0.502577
     5  H    0.204141
     6  H    0.204138
     7  H    0.215095
     8  H    0.204139
     9  H    0.541662
    10  H    0.541669
    11  H    0.215094
    12  H    0.541669
    13  H    0.215092
 Sum of Mulliken charges=   1.00000

 Dipole moment (field-independent basis, Debye):
    X=    -0.0001    Y=     0.0000    Z=     0.6837  Tot=     0.6837
 Quadrupole moment (field-independent basis, Debye-Ang):
   XX=    -0.6679   YY=    -0.6696   ZZ=   -19.6940
   XY=     0.0004   XZ=    -0.0002   YZ=    -0.0005

  Exact polarizability:  37.360   0.000  37.359   0.000   0.000  30.951
 Approx polarizability:  26.022   0.000  26.022   0.000   0.000  26.237

                     1                      2                      3
                     A                      A                      A
 Frequencies --    62.5459                62.5475                70.5927
 Red. masses --     4.6833                 4.6836                 2.7775
 Frc consts  --     0.0108                 0.0108                 0.0082
 IR Inten    --     1.2245                 1.2244                 0.4461

                     4                      5                      6
                     A                      A                      A
 Frequencies --   115.2171               115.2326               125.4127
 Red. masses --     1.0312                 1.0312                 1.1467
 Frc consts  --     0.0081                 0.0081                 0.0106
 IR Inten    --     0.2084                 0.2083                67.5780

                     7                      8                      9
                     A                      A                      A
 Frequencies --   259.5433               281.5210               281.5427
 Red. masses --     1.3718                 1.2395                 1.2396
 Frc consts  --     0.0544                 0.0579                 0.0579
 IR Inten    --    47.9063               197.6532               197.6099

                    10                     11                     12
                     A                      A                      A
 Frequencies --   285.0499               344.0493               344.0549
 Red. masses --     3.1043                 2.7574                 2.7568
 Frc consts  --     0.1486                 0.1923                 0.1923
 IR Inten    --    16.2520               156.7970               156.8185

                    13                     14                     15
                     A                      A                      A
 Frequencies --   378.4159               378.4258               419.2879
 Red. masses --     1.2430                 1.2431                 1.2251
 Frc consts  --     0.1049                 0.1049                 0.1269
 IR Inten    --    80.6853                80.7380                68.8205

                    16                     17                     18
                     A                      A                      A
 Frequencies --   725.0395               971.5106               971.5321
 Red. masses --     1.0212                 1.0419                 1.0419
 Frc consts  --     0.3163                 0.5794                 0.5794
 IR Inten    --     0.1834                71.5100                71.5340

                    19                     20                     21
                     A                      A                      A
 Frequencies --  1202.1506              1622.8152              1622.8194
 Red. masses --     1.0794                 1.0855                 1.0855
 Frc consts  --     0.9190                 1.6843                 1.6843
 IR Inten    --   231.6173                58.1659                58.1717

                    22                     23                     24
                     A                      A                      A
 Frequencies --  1638.1491              1709.4557              1709.4718
 Red. masses --     1.0873                 1.0460                 1.0460
 Frc consts  --     1.7191                 1.8009                 1.8009
 IR Inten    --     0.3824                14.8519                14.8426

                    25                     26                     27
                     A                      A                      A
 Frequencies --  2937.6918              2937.7069              3009.9304
 Red. masses --     1.1106                 1.1106                 1.0199
 Frc consts  --     5.6469                 5.6470                 5.4442
 IR Inten    --  2887.9102              2888.0676               169.3147

                    28                     29                     30
                     A                      A                      A
 Frequencies --  3781.8174              3781.8192              3782.7550
 Red. masses --     1.0451                 1.0451                 1.0452
 Frc consts  --     8.8064                 8.8065                 8.8116
 IR Inten    --    73.9626                73.9662                 0.0784

                    31                     32                     33
                     A                      A                      A
 Frequencies --  3900.5278              3900.5304              3901.0165
 Red. masses --     1.0828                 1.0828                 1.0828
 Frc consts  --     9.7060                 9.7060                 9.7088
 IR Inten    --    28.1796                28.1792               432.9610

 - Thermochemistry -
 -------------------
 Temperature   298.150 Kelvin.  Pressure   1.00000 Atm.
 Atom  1 has atomic number  8 and mass  15.99491

 Molecular mass:    73.05008 amu.
 Principal axes and moments of inertia in atomic units:
                           1         2         3
     EIGENVALUES --   664.56085 664.613841269.56242
           X            0.99997   0.00825   0.00000
           Y           -0.00825   0.99997   0.00000
           Z            0.00000   0.00000   1.00000
 This molecule is an asymmetric top.
 Rotational symmetry number  1.
 Warning -- assumption of classical behavior for rotation
           may cause significant error
 Rotational temperatures (Kelvin)      0.13033     0.13032     0.06822
 Rotational constants (GHZ):           2.71569     2.71547     1.42155
 Zero-point vibrational energy     284891.7 (Joules/Mol)
                                   68.09076 (Kcal/Mol)
 Warning -- explicit consideration of  15 degrees of freedom as
           vibrations may cause significant error
 Vibrational temperatures:     89.99    89.99   101.57   165.77   165.79
          (Kelvin)            180.44   373.42   405.05   405.08   410.12
                              495.01   495.02   544.46   544.47   603.26
                             1043.17  1397.79  1397.82  1729.62  2334.87
                             2334.87  2356.93  2459.52  2459.55  4226.68
                             4226.70  4330.61  5441.19  5441.19  5442.53
                             5611.98  5611.99  5612.69

 Zero-point correction=                           0.108510 (Hartree/Particle)
 Thermal correction to Energy=                    0.119554
 Thermal correction to Enthalpy=                  0.120499
 Thermal correction to Gibbs Free Energy=         0.072506
 Sum of electronic and zero-point Energies=           -305.328299
 Sum of electronic and thermal Energies=              -305.317254
 Sum of electronic and thermal Enthalpies=            -305.316310
 Sum of electronic and thermal Free Energies=         -305.364302

                     E (Thermal)             CV                S
                      KCal/Mol        Cal/Mol-Kelvin    Cal/Mol-Kelvin
 Total                   75.022             34.193            101.008
 Electronic               0.000              0.000              0.000
 Translational            0.889              2.981             38.782
 Rotational               0.889              2.981             27.819
 Vibrational             73.244             28.231             34.408
 Vibration  1             0.597              1.972              4.375
 Vibration  2             0.597              1.972              4.375
 Vibration  3             0.598              1.968              4.137
 Vibration  4             0.608              1.937              3.179
 Vibration  5             0.608              1.937              3.179
 Vibration  6             0.610              1.928              3.015
 Vibration  7             0.668              1.747              1.665
 Vibration  8             0.681              1.708              1.524
 Vibration  9             0.681              1.708              1.524
 Vibration 10             0.683              1.701              1.503
 Vibration 11             0.723              1.587              1.193
 Vibration 12             0.723              1.587              1.193
 Vibration 13             0.749              1.516              1.045
 Vibration 14             0.749              1.516              1.045
 Vibration 15             0.782              1.428              0.894

 Optimization completed.
    -- Stationary point found.
 Normal termination of Gaussian 03 at Mon May  7 21:57:14 2007.
