 Gaussian 03, Revision D.01,
 Gaussian 03:  AM64L-G03RevD.01 13-Oct-2005

 --------------------------
 # freq opt mp2/aug-cc-pvDZ
 --------------------------

 -------------------
 Title Card Required
 -------------------
 Symbolic Z-matrix:
 Charge =  1 Multiplicity = 1

 SCF Done:  E(RHF) =  -304.536587881     A.U. after   11 cycles
 E2 =    -0.8937937453D+00 EUMP2 =    -0.30543038162587D+03
 SCF Done:  E(RHF) =  -304.538620548     A.U. after    9 cycles
 E2 =    -0.8921615311D+00 EUMP2 =    -0.30543078207859D+03
 SCF Done:  E(RHF) =  -304.538723344     A.U. after    8 cycles
 E2 =    -0.8920853707D+00 EUMP2 =    -0.30543080871440D+03
 SCF Done:  E(RHF) =  -304.538890584     A.U. after    8 cycles
 E2 =    -0.8919434378D+00 EUMP2 =    -0.30543083402186D+03
 SCF Done:  E(RHF) =  -304.538961208     A.U. after    7 cycles
 E2 =    -0.8918775558D+00 EUMP2 =    -0.30543083876396D+03
 SCF Done:  E(RHF) =  -304.539046535     A.U. after    8 cycles
 E2 =    -0.8917948410D+00 EUMP2 =    -0.30543084137634D+03
 SCF Done:  E(RHF) =  -304.539093166     A.U. after    7 cycles
 E2 =    -0.8917492232D+00 EUMP2 =    -0.30543084238934D+03
 SCF Done:  E(RHF) =  -304.539112011     A.U. after    7 cycles
 E2 =    -0.8917309047D+00 EUMP2 =    -0.30543084291569D+03
 SCF Done:  E(RHF) =  -304.539130616     A.U. after    8 cycles
 E2 =    -0.8917124512D+00 EUMP2 =    -0.30543084306707D+03
 SCF Done:  E(RHF) =  -304.539113363     A.U. after    7 cycles
 E2 =    -0.8917299890D+00 EUMP2 =    -0.30543084335164D+03
 SCF Done:  E(RHF) =  -304.539095680     A.U. after    7 cycles
 E2 =    -0.8917477973D+00 EUMP2 =    -0.30543084347774D+03
 SCF Done:  E(RHF) =  -304.539093899     A.U. after    7 cycles
 E2 =    -0.8917496636D+00 EUMP2 =    -0.30543084356234D+03
 Optimization completed.
    -- Stationary point found.
 Normal termination of Gaussian 03 at Tue Aug 14 17:26:31 2007.

 ----------------------------------------------------------------------
 #N Geom=AllCheck Guess=Read SCRF=Check GenChk RMP2(FC)/Aug-CC-pVDZ Fre
 q
 ----------------------------------------------------------------------

 Title Card Required
 -------------------
 Redundant internal coordinates taken from checkpoint file:
 pW4-DFT.std.lm.1.chk
 Charge =  1 Multiplicity = 1

                         Standard orientation:
 ---------------------------------------------------------------------
 Center     Atomic     Atomic              Coordinates (Angstroms)
 Number     Number      Type              X           Y           Z
 ---------------------------------------------------------------------
    1          8             0        0.163862    1.813191    0.049847
    2          8             0        1.872579   -0.000149   -0.082310
    3          8             0       -2.026142    0.000118    0.009900
    4          8             0        0.163573   -1.813179    0.049854
    5          1             0        0.172156    2.657748   -0.422290
    6          1             0       -0.728021    1.424656   -0.047223
    7          1             0       -2.551700    0.000155    0.825709
    8          1             0        0.171713   -2.657701   -0.422351
    9          1             0       -0.728237   -1.424461   -0.047195
   10          1             0        2.478478   -0.000198    0.678129
   11          1             0        1.242832   -0.833033   -0.043441
   12          1             0        1.242994    0.832837   -0.043447
   13          1             0       -2.691194    0.000152   -0.696217
 ---------------------------------------------------------------------

 SCF Done:  E(RHF) =  -304.539093899     A.U. after    1 cycles
 E2 =    -0.8917496669D+00 EUMP2 =    -0.30543084356551D+03

 The electronic state is 1-A.
 Alpha  occ. eigenvalues --  -20.83175 -20.77657 -20.76866 -20.76866  -1.63185
 Alpha  occ. eigenvalues --   -1.55684  -1.55102  -1.54172  -0.98330  -0.97146
 Alpha  occ. eigenvalues --   -0.92235  -0.91485  -0.90750  -0.83078  -0.78898
 Alpha  occ. eigenvalues --   -0.77401  -0.76014  -0.71039  -0.70945  -0.70535
 Alpha virt. eigenvalues --   -0.09827  -0.07577  -0.06781  -0.05763  -0.04560
 Alpha virt. eigenvalues --   -0.03512  -0.02260  -0.02072  -0.00814   0.03525
 Alpha virt. eigenvalues --    0.03960   0.05759   0.05965   0.07568   0.07579

 Mulliken atomic charges:
              1
     1  O   -0.499486
     2  O   -0.372661
     3  O   -0.667897
     4  O   -0.499493
     5  H    0.224387
     6  H    0.309822
     7  H    0.275703
     8  H    0.224378
     9  H    0.309863
    10  H    0.261661
    11  H    0.579351
    12  H    0.579319
    13  H    0.275053
 Sum of Mulliken charges=   1.00000

 Dipole moment (field-independent basis, Debye):
    X=    -1.2053    Y=     0.0001    Z=    -0.4443  Tot=     1.2845
 Quadrupole moment (field-independent basis, Debye-Ang):
   XX=    -1.9262   YY=    -9.6120   ZZ=   -23.0407
   XY=    -0.0003   XZ=     3.5147   YZ=     0.0000

  Exact polarizability:  38.318   0.000  38.017   0.720   0.000  28.994
 Approx polarizability:  27.458   0.000  26.924   0.824   0.000  24.557

                     1                      2                      3
                     A                      A                      A
 Frequencies --    53.4024                99.9066               119.9543
 Red. masses --     3.6889                 5.9423                 4.2041
 Frc consts  --     0.0062                 0.0349                 0.0356
 IR Inten    --     1.8641                 3.2773                 0.3261

                     4                      5                      6
                     A                      A                      A
 Frequencies --   194.6838               247.0233               252.4678
 Red. masses --     4.3816                 1.0884                 1.1509
 Frc consts  --     0.0978                 0.0391                 0.0432
 IR Inten    --    12.4624                77.3105                22.0225

                     7                      8                      9
                     A                      A                      A
 Frequencies --   301.1823               312.5208               358.5910
 Red. masses --     1.1369                 1.0930                 3.8470
 Frc consts  --     0.0608                 0.0629                 0.2915
 IR Inten    --   104.1367                 0.0605               187.4813

                    10                     11                     12
                     A                      A                      A
 Frequencies --   412.6348               449.4582               450.6739
 Red. masses --     4.6667                 1.0983                 1.1037
 Frc consts  --     0.4682                 0.1307                 0.1321
 IR Inten    --    45.4627                 5.9231               121.5964

                    13                     14                     15
                     A                      A                      A
 Frequencies --   530.8414               564.5972               585.2184
 Red. masses --     1.1015                 1.1806                 1.0494
 Frc consts  --     0.1829                 0.2217                 0.2117
 IR Inten    --   200.4374               124.5161               105.1504

                    16                     17                     18
                     A                      A                      A
 Frequencies --   683.9847               713.0330              1061.3569
 Red. masses --     1.0626                 1.0682                 1.0446
 Frc consts  --     0.2929                 0.3200                 0.6933
 IR Inten    --    52.1071               119.1982                 6.1184

                    19                     20                     21
                     A                      A                      A
 Frequencies --  1296.0547              1602.9016              1612.9202
 Red. masses --     1.0960                 1.0216                 1.0925
 Frc consts  --     1.0847                 1.5465                 1.6746
 IR Inten    --   231.4152                34.5450                 3.3732

                    22                     23                     24
                     A                      A                      A
 Frequencies --  1624.8041              1652.3534              1798.2624
 Red. masses --     1.0836                 1.0766                 1.0531
 Frc consts  --     1.6855                 1.7318                 2.0064
 IR Inten    --    97.0516                28.8742               168.3635

                    25                     26                     27
                     A                      A                      A
 Frequencies --  2362.9053              2561.7696              3608.4954
 Red. masses --     1.1325                 1.0447                 1.0563
 Frc consts  --     3.7255                 4.0394                 8.1041
 IR Inten    --  2522.5536              1827.5177               233.4276

                    28                     29                     30
                     A                      A                      A
 Frequencies --  3632.3670              3752.0338              3778.0988
 Red. masses --     1.0545                 1.0458                 1.0660
 Frc consts  --     8.1971                 8.6746                 8.9650
 IR Inten    --   602.9216                24.0079               201.2349

                    31                     32                     33
                     A                      A                      A
 Frequencies --  3854.5468              3858.2625              3862.1501
 Red. masses --     1.0737                 1.0749                 1.0809
 Frc consts  --     9.3989                 9.4280                 9.4997
 IR Inten    --   343.0217               102.4863               152.2016

 - Thermochemistry -
 -------------------
 Temperature   298.150 Kelvin.  Pressure   1.00000 Atm.
 Atom  1 has atomic number  8 and mass  15.99491

 Molecular mass:    73.05008 amu.
 Principal axes and moments of inertia in atomic units:
                           1         2         3
     EIGENVALUES --   453.81901 532.34413 970.55919
           X            0.99996   0.00000   0.00868
           Y            0.00000   1.00000   0.00000
           Z           -0.00868   0.00000   0.99996
 This molecule is an asymmetric top.
 Rotational symmetry number  1.
 Warning -- assumption of classical behavior for rotation
           may cause significant error
 Rotational temperatures (Kelvin)      0.19086     0.16270     0.08924
 Rotational constants (GHZ):           3.97679     3.39018     1.85949
 Zero-point vibrational energy     288595.8 (Joules/Mol)
                                   68.97606 (Kcal/Mol)
 Warning -- explicit consideration of  15 degrees of freedom as
           vibrations may cause significant error
 Vibrational temperatures:     76.83   143.74   172.59   280.11   355.41
          (Kelvin)            363.24   433.33   449.65   515.93   593.69
                              646.67   648.42   763.76   812.33   842.00
                              984.10  1025.89  1527.05  1864.73  2306.22
                             2320.63  2337.73  2377.37  2587.30  3399.69
                             3685.81  5191.81  5226.16  5398.33  5435.83
                             5545.83  5551.17  5556.77

 Zero-point correction=                           0.109920 (Hartree/Particle)
 Thermal correction to Energy=                    0.119387
 Thermal correction to Enthalpy=                  0.120331
 Thermal correction to Gibbs Free Energy=         0.076929
 Sum of electronic and zero-point Energies=           -305.320923
 Sum of electronic and thermal Energies=              -305.311456
 Sum of electronic and thermal Enthalpies=            -305.310512
 Sum of electronic and thermal Free Energies=         -305.353915

                     E (Thermal)             CV                S
                      KCal/Mol        Cal/Mol-Kelvin    Cal/Mol-Kelvin
 Total                   74.917             31.942             91.348
 Electronic               0.000              0.000              0.000
 Translational            0.889              2.981             38.782
 Rotational               0.889              2.981             26.952
 Vibrational             73.139             25.981             25.613
 Vibration  1             0.596              1.976              4.687
 Vibration  2             0.604              1.949              3.456
 Vibration  3             0.609              1.933              3.101
 Vibration  4             0.635              1.847              2.183
 Vibration  5             0.661              1.768              1.752
 Vibration  6             0.664              1.759              1.713
 Vibration  7             0.693              1.671              1.410
 Vibration  8             0.701              1.650              1.349
 Vibration  9             0.733              1.558              1.128
 Vibration 10             0.776              1.443              0.917
 Vibration 11             0.808              1.362              0.797
 Vibration 12             0.809              1.359              0.794
 Vibration 13             0.886              1.182              0.585
 Vibration 14             0.920              1.108              0.515
 Vibration 15             0.942              1.063              0.476

 Normal termination of Gaussian 03 at Tue Aug 14 19:08:48 2007.
