 Gaussian 03, Revision D.01,
 Gaussian 03:  AM64L-G03RevD.01 13-Oct-2005

 --------------------------
 # freq opt mp2/aug-cc-pvDZ
 --------------------------

 -------------------
 Title Card Required
 -------------------
 Symbolic Z-matrix:
 Charge =  1 Multiplicity = 1

 SCF Done:  E(RHF) =  -304.538165242     A.U. after   11 cycles
 E2 =    -0.8918997043D+00 EUMP2 =    -0.30543006494626D+03
 SCF Done:  E(RHF) =  -304.540029267     A.U. after   10 cycles
 E2 =    -0.8904321543D+00 EUMP2 =    -0.30543046142154D+03
 SCF Done:  E(RHF) =  -304.539998134     A.U. after    9 cycles
 E2 =    -0.8904856989D+00 EUMP2 =    -0.30543048383333D+03
 SCF Done:  E(RHF) =  -304.539984843     A.U. after   10 cycles
 E2 =    -0.8905322527D+00 EUMP2 =    -0.30543051709576D+03
 SCF Done:  E(RHF) =  -304.540015032     A.U. after    9 cycles
 E2 =    -0.8905091605D+00 EUMP2 =    -0.30543052419278D+03
 SCF Done:  E(RHF) =  -304.540068370     A.U. after    8 cycles
 E2 =    -0.8904602721D+00 EUMP2 =    -0.30543052864225D+03
 SCF Done:  E(RHF) =  -304.540136676     A.U. after    8 cycles
 E2 =    -0.8903968970D+00 EUMP2 =    -0.30543053357264D+03
 SCF Done:  E(RHF) =  -304.540197913     A.U. after    8 cycles
 E2 =    -0.8903400376D+00 EUMP2 =    -0.30543053795095D+03
 SCF Done:  E(RHF) =  -304.540247820     A.U. after    9 cycles
 E2 =    -0.8902940104D+00 EUMP2 =    -0.30543054182998D+03
 SCF Done:  E(RHF) =  -304.540271070     A.U. after    8 cycles
 E2 =    -0.8902738208D+00 EUMP2 =    -0.30543054489039D+03
 E2 =    -0.8902708981D+00 EUMP2 =    -0.30543054794460D+03
 E2 =    -0.8902856170D+00 EUMP2 =    -0.30543055070665D+03
 E2 =    -0.8903051587D+00 EUMP2 =    -0.30543055275177D+03
 E2 =    -0.8903077211D+00 EUMP2 =    -0.30543055395663D+03
 E2 =    -0.8902934866D+00 EUMP2 =    -0.30543055492209D+03
 SCF Done:  E(RHF) =  -304.540291015     A.U. after    8 cycles
 E2 =    -0.8902648203D+00 EUMP2 =    -0.30543055583573D+03
 SCF Done:  E(RHF) =  -304.540325377     A.U. after    8 cycles
 E2 =    -0.8902312714D+00 EUMP2 =    -0.30543055664793D+03
 SCF Done:  E(RHF) =  -304.540345546     A.U. after    7 cycles
 E2 =    -0.8902117118D+00 EUMP2 =    -0.30543055725820D+03
 SCF Done:  E(RHF) =  -304.540348061     A.U. after    7 cycles
 E2 =    -0.8902096644D+00 EUMP2 =    -0.30543055772494D+03
 SCF Done:  E(RHF) =  -304.540338149     A.U. after    7 cycles
 E2 =    -0.8902199953D+00 EUMP2 =    -0.30543055814400D+03
 SCF Done:  E(RHF) =  -304.540319682     A.U. after    7 cycles
 E2 =    -0.8902387924D+00 EUMP2 =    -0.30543055847458D+03
 SCF Done:  E(RHF) =  -304.540303075     A.U. after    7 cycles
 E2 =    -0.8902556901D+00 EUMP2 =    -0.30543055876483D+03
 SCF Done:  E(RHF) =  -304.540301826     A.U. after    7 cycles
 E2 =    -0.8902571258D+00 EUMP2 =    -0.30543055895127D+03
 SCF Done:  E(RHF) =  -304.540314517     A.U. after    7 cycles
 E2 =    -0.8902445770D+00 EUMP2 =    -0.30543055909410D+03
 Optimization completed.
    -- Stationary point found.
 Normal termination of Gaussian 03 at Tue Aug 14 18:38:25 2007.

 ----------------------------------------------------------------------
 #N Geom=AllCheck Guess=Read SCRF=Check GenChk RMP2(FC)/Aug-CC-pVDZ Fre
 q
 ----------------------------------------------------------------------

 Title Card Required
 -------------------
 Redundant internal coordinates taken from checkpoint file:
 pW4-DFT.std.lm.2.chk
 Charge =  1 Multiplicity = 1

                         Standard orientation:
 ---------------------------------------------------------------------
 Center     Atomic     Atomic              Coordinates (Angstroms)
 Number     Number      Type              X           Y           Z
 ---------------------------------------------------------------------
    1          8             0       -3.043626    0.679484    0.239429
    2          8             0        1.058599   -0.771648    0.593978
    3          8             0        3.030569    0.695419   -0.139241
    4          8             0       -0.978989   -0.653177   -0.687374
    5          1             0       -3.766859    0.330891    0.779298
    6          1             0        0.078987   -0.703069    0.034760
    7          1             0        1.798887   -0.158074    0.274846
    8          1             0        0.969930   -0.693368    1.556169
    9          1             0       -1.242013   -1.474394   -1.127019
   10          1             0        3.015756    1.601209   -0.478030
   11          1             0        3.847922    0.297684   -0.471105
   12          1             0       -1.800138   -0.199451   -0.345788
   13          1             0       -3.434890    1.397946   -0.277471
 ---------------------------------------------------------------------

 SCF Done:  E(RHF) =  -304.540314517     A.U. after    1 cycles
 E2 =    -0.8902445750D+00 EUMP2 =    -0.30543055909212D+03

 The electronic state is 1-A.
 Alpha  occ. eigenvalues --  -20.80618 -20.77155 -20.76021 -20.74838  -1.60627
 Alpha  occ. eigenvalues --   -1.55617  -1.53763  -1.52379  -0.97448  -0.95810
 Alpha  occ. eigenvalues --   -0.92685  -0.90062  -0.88631  -0.81479  -0.77351
 Alpha  occ. eigenvalues --   -0.75488  -0.74072  -0.71237  -0.69710  -0.68273
 Alpha virt. eigenvalues --   -0.09210  -0.07190  -0.06176  -0.05745  -0.04440
 Alpha virt. eigenvalues --   -0.03692  -0.01960  -0.01242  -0.01036   0.04459
 Alpha virt. eigenvalues --    0.04989   0.05466   0.07251   0.07767   0.08177

 Mulliken atomic charges:
              1
     1  O   -0.481021
     2  O   -0.459861
     3  O   -0.498397
     4  O   -0.564074
     5  H    0.211660
     6  H    0.735993
     7  H    0.519844
     8  H    0.247642
     9  H    0.209152
    10  H    0.216172
    11  H    0.202289
    12  H    0.461164
    13  H    0.199437
 Sum of Mulliken charges=   1.00000

 Dipole moment (field-independent basis, Debye):
    X=    -0.3865    Y=     0.2911    Z=     0.1150  Tot=     0.4973
 Quadrupole moment (field-independent basis, Debye-Ang):
   XX=    19.5683   YY=   -16.9651   ZZ=   -19.5801
   XY=     2.2399   XZ=    -2.6596   YZ=    -1.5957

  Exact polarizability:  42.092   0.215  32.566   0.034  -0.248  32.025
 Approx polarizability:  27.777  -0.114  25.796  -0.367  -0.522  25.279

                     1                      2                      3
                     A                      A                      A
 Frequencies --    25.2437                59.6439                71.9221
 Red. masses --     4.0701                 3.8386                 4.1451
 Frc consts  --     0.0015                 0.0080                 0.0126
 IR Inten    --     1.0652                 2.5619                 2.7664

                     4                      5                      6
                     A                      A                      A
 Frequencies --   105.3737               138.2623               199.9654
 Red. masses --     1.1312                 1.0615                 1.5311
 Frc consts  --     0.0074                 0.0120                 0.0361
 IR Inten    --    18.6048                26.4854               113.1422

                     7                      8                      9
                     A                      A                      A
 Frequencies --   233.2898               287.4734               306.1014
 Red. masses --     1.8902                 1.2484                 2.5657
 Frc consts  --     0.0606                 0.0608                 0.1416
 IR Inten    --   378.6348               116.6979               171.6071

                    10                     11                     12
                     A                      A                      A
 Frequencies --   324.2166               346.7061               352.5831
 Red. masses --     1.2368                 1.2031                 1.1482
 Frc consts  --     0.0766                 0.0852                 0.0841
 IR Inten    --    96.3773                 0.3748               162.6539

                    13                     14                     15
                     A                      A                      A
 Frequencies --   406.1112               502.6796               592.9772
 Red. masses --     1.2237                 2.4762                 1.1674
 Frc consts  --     0.1189                 0.3687                 0.2418
 IR Inten    --    16.4986               306.1358                92.8104

                    16                     17                     18
                     A                      A                      A
 Frequencies --   650.2218               922.6429              1027.5050
 Red. masses --     1.0655                 1.0769                 1.0477
 Frc consts  --     0.2654                 0.5401                 0.6517
 IR Inten    --     7.1841               186.2811                80.4873

                    19                     20                     21
                     A                      A                      A
 Frequencies --  1181.1461              1395.9921              1596.2624
 Red. masses --     1.1425                 1.0598                 1.0672
 Frc consts  --     0.9391                 1.2169                 1.6021
 IR Inten    --  2763.6725               152.0973               144.3852

                    22                     23                     24
                     A                      A                      A
 Frequencies --  1632.7817              1644.8557              1715.2197
 Red. masses --     1.0893                 1.0834                 1.0581
 Frc consts  --     1.7110                 1.7270                 1.8341
 IR Inten    --    98.0679                11.4523                 9.1642

                    25                     26                     27
                     A                      A                      A
 Frequencies --  1776.0175              2971.8269              3225.1456
 Red. masses --     1.0948                 1.0697                 1.0663
 Frc consts  --     2.0345                 5.5661                 6.5348
 IR Inten    --  1127.2316              1810.4721              1258.8427

                    28                     29                     30
                     A                      A                      A
 Frequencies --  3783.9965              3785.3134              3816.5572
 Red. masses --     1.0453                 1.0449                 1.0669
 Frc consts  --     8.8183                 8.8216                 9.1560
 IR Inten    --    46.1728                52.3933               178.8499

                    31                     32                     33
                     A                      A                      A
 Frequencies --  3839.4046              3903.2000              3905.5137
 Red. masses --     1.0677                 1.0823                 1.0831
 Frc consts  --     9.2731                 9.7152                 9.7336
 IR Inten    --   159.4463               141.2250               174.3612

 - Thermochemistry -
 -------------------
 Temperature   298.150 Kelvin.  Pressure   1.00000 Atm.
 Atom  1 has atomic number  8 and mass  15.99491

 Molecular mass:    73.05008 amu.
 Principal axes and moments of inertia in atomic units:
                           1         2         3
     EIGENVALUES --   210.479911453.863531525.24641
           X            0.99999   0.00306  -0.00332
           Y           -0.00313   0.99974  -0.02262
           Z            0.00325   0.02263   0.99974
 This molecule is an asymmetric top.
 Rotational symmetry number  1.
 Rotational temperatures (Kelvin)      0.41151     0.05957     0.05679
 Rotational constants (GHZ):           8.57441     1.24134     1.18325
 Zero-point vibrational energy     279484.5 (Joules/Mol)
                                   66.79839 (Kcal/Mol)
 Warning -- explicit consideration of  15 degrees of freedom as
           vibrations may cause significant error
 Vibrational temperatures:     36.32    85.81   103.48   151.61   198.93
          (Kelvin)            287.71   335.65   413.61   440.41   466.47
                              498.83   507.29   584.30   723.24   853.16
                              935.52  1327.48  1478.35  1699.40  2008.52
                             2296.66  2349.21  2366.58  2467.82  2555.29
                             4275.79  4640.26  5444.32  5446.22  5491.17
                             5524.04  5615.83  5619.16

 Zero-point correction=                           0.106450 (Hartree/Particle)
 Thermal correction to Energy=                    0.117142
 Thermal correction to Enthalpy=                  0.118086
 Thermal correction to Gibbs Free Energy=         0.070311
 Sum of electronic and zero-point Energies=           -305.324109
 Sum of electronic and thermal Energies=              -305.313417
 Sum of electronic and thermal Enthalpies=            -305.312473
 Sum of electronic and thermal Free Energies=         -305.360248

                     E (Thermal)             CV                S
                      KCal/Mol        Cal/Mol-Kelvin    Cal/Mol-Kelvin
 Total                   73.508             33.541            100.551
 Electronic               0.000              0.000              0.000
 Translational            0.889              2.981             38.782
 Rotational               0.889              2.981             27.637
 Vibrational             71.730             27.579             34.133
 Vibration  1             0.593              1.985              6.172
 Vibration  2             0.597              1.974              4.469
 Vibration  3             0.598              1.967              4.100
 Vibration  4             0.605              1.945              3.352
 Vibration  5             0.614              1.915              2.828
 Vibration  6             0.638              1.840              2.133
 Vibration  7             0.654              1.790              1.853
 Vibration  8             0.685              1.697              1.489
 Vibration  9             0.696              1.662              1.383
 Vibration 10             0.709              1.627              1.289
 Vibration 11             0.725              1.582              1.181
 Vibration 12             0.729              1.570              1.155
 Vibration 13             0.771              1.457              0.940
 Vibration 14             0.858              1.244              0.651
 Vibration 15             0.951              1.047              0.462

 Normal termination of Gaussian 03 at Tue Aug 14 20:16:36 2007.
