 Gaussian 03, Revision D.01,
 Gaussian 03:  AM64L-G03RevD.01 13-Oct-2005

 --------------------------
 # freq opt mp2/aug-cc-pvDZ
 --------------------------

 -------------------
 Title Card Required
 -------------------
 Symbolic Z-matrix:
 Charge =  1 Multiplicity = 1

 SCF Done:  E(RHF) =  -304.538083245     A.U. after   10 cycles
 E2 =    -0.8920850964D+00 EUMP2 =    -0.30543016834170D+03
 SCF Done:  E(RHF) =  -304.539898890     A.U. after   11 cycles
 E2 =    -0.8906521765D+00 EUMP2 =    -0.30543055106628D+03
 SCF Done:  E(RHF) =  -304.539831218     A.U. after    8 cycles
 E2 =    -0.8907325740D+00 EUMP2 =    -0.30543056379243D+03
 SCF Done:  E(RHF) =  -304.539744097     A.U. after    8 cycles
 E2 =    -0.8908349415D+00 EUMP2 =    -0.30543057903876D+03
 SCF Done:  E(RHF) =  -304.539792034     A.U. after    8 cycles
 E2 =    -0.8907891790D+00 EUMP2 =    -0.30543058121348D+03
 SCF Done:  E(RHF) =  -304.539820205     A.U. after    8 cycles
 E2 =    -0.8907618339D+00 EUMP2 =    -0.30543058203912D+03
 SCF Done:  E(RHF) =  -304.539836915     A.U. after    7 cycles
 E2 =    -0.8907455607D+00 EUMP2 =    -0.30543058247585D+03
 SCF Done:  E(RHF) =  -304.539840568     A.U. after    7 cycles
 E2 =    -0.8907422067D+00 EUMP2 =    -0.30543058277507D+03
 SCF Done:  E(RHF) =  -304.539834598     A.U. after    8 cycles
 E2 =    -0.8907483256D+00 EUMP2 =    -0.30543058292329D+03
 SCF Done:  E(RHF) =  -304.539826048     A.U. after    7 cycles
 E2 =    -0.8907570925D+00 EUMP2 =    -0.30543058314086D+03
 SCF Done:  E(RHF) =  -304.539806185     A.U. after    7 cycles
 E2 =    -0.8907770216D+00 EUMP2 =    -0.30543058320703D+03
 SCF Done:  E(RHF) =  -304.539801487     A.U. after    7 cycles
 E2 =    -0.8907818165D+00 EUMP2 =    -0.30543058330309D+03
 SCF Done:  E(RHF) =  -304.539790922     A.U. after    7 cycles
 E2 =    -0.8907924713D+00 EUMP2 =    -0.30543058339309D+03
 SCF Done:  E(RHF) =  -304.539772436     A.U. after    7 cycles
 E2 =    -0.8908110692D+00 EUMP2 =    -0.30543058350478D+03
 Optimization completed.
    -- Stationary point found.
 Normal termination of Gaussian 03 at Tue Aug 14 17:29:08 2007.

 ----------------------------------------------------------------------
 #N Geom=AllCheck Guess=Read SCRF=Check GenChk RMP2(FC)/Aug-CC-pVDZ Fre
 q
 ----------------------------------------------------------------------

 Title Card Required
 -------------------
 Redundant internal coordinates taken from checkpoint file:
 pW4-DFT.std.lm.3.chk
 Charge =  1 Multiplicity = 1

                         Standard orientation:
 ---------------------------------------------------------------------
 Center     Atomic     Atomic              Coordinates (Angstroms)
 Number     Number      Type              X           Y           Z
 ---------------------------------------------------------------------
    1          8             0       -2.553260    1.056613   -0.144058
    2          8             0       -1.172569   -1.110784    0.236721
    3          8             0        1.176718   -1.112807   -0.236021
    4          8             0        2.548843    1.061121    0.143406
    5          1             0       -2.744665    1.749840    0.503100
    6          1             0       -1.715069   -0.269303    0.153532
    7          1             0       -1.400616   -1.559326    1.064382
    8          1             0        0.001241   -1.060256    0.000445
    9          1             0        1.720503   -0.272235   -0.153786
   10          1             0        1.405240   -1.563856   -1.062151
   11          1             0        2.742389    1.749102   -0.508744
   12          1             0        3.315470    1.041853    0.734043
   13          1             0       -3.322346    1.031045   -0.731201
 ---------------------------------------------------------------------

 SCF Done:  E(RHF) =  -304.539772436     A.U. after    1 cycles
 E2 =    -0.8908110797D+00 EUMP2 =    -0.30543058351528D+03

 The electronic state is 1-A.
 Alpha  occ. eigenvalues --  -20.78869 -20.78825 -20.75575 -20.75567  -1.59719
 Alpha  occ. eigenvalues --   -1.56435  -1.53312  -1.53088  -0.97201  -0.94335
 Alpha  occ. eigenvalues --   -0.94252  -0.89417  -0.89398  -0.81395  -0.77246
 Alpha  occ. eigenvalues --   -0.75035  -0.74129  -0.72227  -0.69241  -0.68851
 Alpha virt. eigenvalues --   -0.09189  -0.07282  -0.06292  -0.05735  -0.03927
 Alpha virt. eigenvalues --   -0.03903  -0.02118  -0.01610  -0.01539   0.05121
 Alpha virt. eigenvalues --    0.05179   0.05830   0.06747   0.08034   0.08419

 Mulliken atomic charges:
              1
     1  O   -0.491123
     2  O   -0.518710
     3  O   -0.520172
     4  O   -0.490465
     5  H    0.215002
     6  H    0.499090
     7  H    0.222624
     8  H    0.745655
     9  H    0.497882
    10  H    0.222036
    11  H    0.214975
    12  H    0.201585
    13  H    0.201620
 Sum of Mulliken charges=   1.00000

 Dipole moment (field-independent basis, Debye):
    X=    -0.0028    Y=     0.9131    Z=     0.0010  Tot=     0.9131
 Quadrupole moment (field-independent basis, Debye-Ang):
   XX=    12.1302   YY=   -13.1329   ZZ=   -18.9387
   XY=     0.0062   XZ=    -3.2133   YZ=     0.0090

  Exact polarizability:  40.034  -0.008  35.634  -0.595   0.006  30.924
 Approx polarizability:  27.172   0.002  26.020   0.035   0.007  25.749

 ******    1 imaginary frequencies (negative Signs) ******

                     1                      2                      3
                     A                      A                      A
 Frequencies --   -28.1352                25.7960                51.7108
 Red. masses --     2.8188                 4.4100                 4.1642
 Frc consts  --     0.0013                 0.0017                 0.0066
 IR Inten    --   340.6909                 0.0575                 3.8334

                     4                      5                      6
                     A                      A                      A
 Frequencies --   107.1394               145.8727               163.1062
 Red. masses --     1.3860                 1.0452                 1.4690
 Frc consts  --     0.0094                 0.0131                 0.0230
 IR Inten    --    42.5310                12.9170               322.2601

                     7                      8                      9
                     A                      A                      A
 Frequencies --   278.7920               294.3286               301.5876
 Red. masses --     2.1007                 1.2066                 1.4062
 Frc consts  --     0.0962                 0.0616                 0.0754
 IR Inten    --    20.5099               197.8392               128.5955

                    10                     11                     12
                     A                      A                      A
 Frequencies --   309.1454               356.3303               360.5186
 Red. masses --     1.6236                 1.1039                 1.1744
 Frc consts  --     0.0914                 0.0826                 0.0899
 IR Inten    --   121.9365               125.8087                 1.8080

                    13                     14                     15
                     A                      A                      A
 Frequencies --   418.4698               597.4141               603.1502
 Red. masses --     1.1921                 1.7241                 1.0640
 Frc consts  --     0.1230                 0.3625                 0.2281
 IR Inten    --   157.4120                15.7652               266.2942

                    16                     17                     18
                     A                      A                      A
 Frequencies --   649.4461               730.0556               971.4008
 Red. masses --     1.8672                 1.1429                 1.0443
 Frc consts  --     0.4640                 0.3589                 0.5806
 IR Inten    --     2.5581              2470.5038                 9.6039

                    19                     20                     21
                     A                      A                      A
 Frequencies --  1026.6054              1474.0285              1546.2633
 Red. masses --     1.0666                 1.0616                 1.0552
 Frc consts  --     0.6623                 1.3591                 1.4865
 IR Inten    --   945.7638               156.0077                45.2945

                    22                     23                     24
                     A                      A                      A
 Frequencies --  1633.6312              1634.6313              1717.5327
 Red. masses --     1.0860                 1.0859                 1.0651
 Frc consts  --     1.7076                 1.7096                 1.8512
 IR Inten    --    19.4049               200.3190                 7.9582

                    25                     26                     27
                     A                      A                      A
 Frequencies --  1755.4421              3097.8388              3131.4428
 Red. masses --     1.0803                 1.0649                 1.0713
 Frc consts  --     1.9613                 6.0209                 6.1895
 IR Inten    --   632.9830              1026.2220              1942.1177

                    28                     29                     30
                     A                      A                      A
 Frequencies --  3782.1790              3782.5907              3827.8378
 Red. masses --     1.0452                 1.0452                 1.0669
 Frc consts  --     8.8092                 8.8112                 9.2107
 IR Inten    --    53.5024                41.0585               201.3142

                    31                     32                     33
                     A                      A                      A
 Frequencies --  3829.6020              3901.3082              3901.7456
 Red. masses --     1.0678                 1.0825                 1.0825
 Frc consts  --     9.2269                 9.7073                 9.7097
 IR Inten    --   146.7116               143.7055               166.1748

 - Thermochemistry -
 -------------------
 Temperature   298.150 Kelvin.  Pressure   1.00000 Atm.
 Atom  1 has atomic number  8 and mass  15.99491

 Molecular mass:    73.05008 amu.
 Principal axes and moments of inertia in atomic units:
                           1         2         3
     EIGENVALUES --   343.878991092.697981391.11327
           X            0.99999   0.00001  -0.00482
           Y           -0.00001   1.00000   0.00003
           Z            0.00482  -0.00003   0.99999
 This molecule is an asymmetric top.
 Rotational symmetry number  1.
 Rotational temperatures (Kelvin)      0.25187     0.07927     0.06226
 Rotational constants (GHZ):           5.24819     1.65164     1.29734
    1 imaginary frequencies ignored.
 Zero-point vibrational energy     277575.2 (Joules/Mol)
                                   66.34206 (Kcal/Mol)
 Warning -- explicit consideration of  14 degrees of freedom as
           vibrations may cause significant error
 Vibrational temperatures:     37.11    74.40   154.15   209.88   234.67
          (Kelvin)            401.12   423.47   433.92   444.79   512.68
                              518.71   602.08   859.54   867.80   934.41
                             1050.39  1397.63  1477.05  2120.80  2224.73
                             2350.43  2351.87  2471.14  2525.69  4457.09
                             4505.44  5441.71  5442.30  5507.40  5509.94
                             5613.11  5613.73

 Zero-point correction=                           0.105723 (Hartree/Particle)
 Thermal correction to Energy=                    0.115612
 Thermal correction to Enthalpy=                  0.116556
 Thermal correction to Gibbs Free Energy=         0.070627
 Sum of electronic and zero-point Energies=           -305.324861
 Sum of electronic and thermal Energies=              -305.314972
 Sum of electronic and thermal Enthalpies=            -305.314027
 Sum of electronic and thermal Free Energies=         -305.359957

                     E (Thermal)             CV                S
                      KCal/Mol        Cal/Mol-Kelvin    Cal/Mol-Kelvin
 Total                   72.548             31.758             96.666
 Electronic               0.000              0.000              0.000
 Translational            0.889              2.981             38.782
 Rotational               0.889              2.981             27.749
 Vibrational             70.770             25.796             30.135
 Vibration  1             0.593              1.985              6.129
 Vibration  2             0.596              1.977              4.751
 Vibration  3             0.606              1.944              3.320
 Vibration  4             0.617              1.907              2.725
 Vibration  5             0.623              1.888              2.513
 Vibration  6             0.679              1.713              1.541
 Vibration  7             0.689              1.684              1.449
 Vibration  8             0.694              1.671              1.408
 Vibration  9             0.698              1.656              1.367
 Vibration 10             0.732              1.562              1.138
 Vibration 11             0.735              1.554              1.120
 Vibration 12             0.781              1.430              0.897
 Vibration 13             0.955              1.037              0.454
 Vibration 14             0.962              1.025              0.444

 Normal termination of Gaussian 03 at Tue Aug 14 19:04:48 2007.
