 Gaussian 03, Revision D.01,
 Gaussian 03:  AM64L-G03RevD.01 13-Oct-2005

 --------------------------
 # freq opt mp2/aug-cc-pvDZ
 --------------------------

 -------------------
 Title Card Required
 -------------------
 Symbolic Z-matrix:
 Charge =  1 Multiplicity = 1

 SCF Done:  E(RHF) =  -304.548186318     A.U. after   10 cycles
 E2 =    -0.8881176035D+00 EUMP2 =    -0.30543630392120D+03
 SCF Done:  E(RHF) =  -304.550080584     A.U. after   11 cycles
 E2 =    -0.8866833374D+00 EUMP2 =    -0.30543676392105D+03
 SCF Done:  E(RHF) =  -304.549954853     A.U. after   11 cycles
 E2 =    -0.8868235991D+00 EUMP2 =    -0.30543677845239D+03
 SCF Done:  E(RHF) =  -304.549827004     A.U. after   11 cycles
 E2 =    -0.8869635231D+00 EUMP2 =    -0.30543679052706D+03
 SCF Done:  E(RHF) =  -304.549838589     A.U. after    9 cycles
 E2 =    -0.8869542142D+00 EUMP2 =    -0.30543679280303D+03
 SCF Done:  E(RHF) =  -304.549881515     A.U. after    8 cycles
 E2 =    -0.8869128021D+00 EUMP2 =    -0.30543679431681D+03
 SCF Done:  E(RHF) =  -304.549930744     A.U. after   12 cycles
 E2 =    -0.8868646088D+00 EUMP2 =    -0.30543679535293D+03
 SCF Done:  E(RHF) =  -304.549981261     A.U. after    9 cycles
 E2 =    -0.8868150810D+00 EUMP2 =    -0.30543679634169D+03
 SCF Done:  E(RHF) =  -304.550022332     A.U. after    9 cycles
 E2 =    -0.8867750175D+00 EUMP2 =    -0.30543679734960D+03
 SCF Done:  E(RHF) =  -304.550045806     A.U. after    9 cycles
 E2 =    -0.8867526830D+00 EUMP2 =    -0.30543679848897D+03
 E2 =    -0.8867631112D+00 EUMP2 =    -0.30543679978355D+03
 E2 =    -0.8868088956D+00 EUMP2 =    -0.30543680130173D+03
 E2 =    -0.8868703754D+00 EUMP2 =    -0.30543680280335D+03
 E2 =    -0.8869273148D+00 EUMP2 =    -0.30543680420129D+03
 E2 =    -0.8869619439D+00 EUMP2 =    -0.30543680551173D+03
 SCF Done:  E(RHF) =  -304.549851810     A.U. after   12 cycles
 E2 =    -0.8869548135D+00 EUMP2 =    -0.30543680662392D+03
 SCF Done:  E(RHF) =  -304.549894649     A.U. after    8 cycles
 E2 =    -0.8869126702D+00 EUMP2 =    -0.30543680731873D+03
 SCF Done:  E(RHF) =  -304.549936435     A.U. after    7 cycles
 E2 =    -0.8868712495D+00 EUMP2 =    -0.30543680768415D+03
 SCF Done:  E(RHF) =  -304.549969619     A.U. after    9 cycles
 E2 =    -0.8868379794D+00 EUMP2 =    -0.30543680759839D+03
 SCF Done:  E(RHF) =  -304.549981241     A.U. after   12 cycles
 E2 =    -0.8868268321D+00 EUMP2 =    -0.30543680807285D+03
 SCF Done:  E(RHF) =  -304.550002473     A.U. after   12 cycles
 E2 =    -0.8868058617D+00 EUMP2 =    -0.30543680833469D+03
 SCF Done:  E(RHF) =  -304.549998475     A.U. after    9 cycles
 E2 =    -0.8868099705D+00 EUMP2 =    -0.30543680844592D+03
 SCF Done:  E(RHF) =  -304.549985556     A.U. after    9 cycles
 E2 =    -0.8868229071D+00 EUMP2 =    -0.30543680846279D+03
 SCF Done:  E(RHF) =  -304.549979872     A.U. after   12 cycles
 E2 =    -0.8868286490D+00 EUMP2 =    -0.30543680852128D+03
 Optimization completed.
    -- Stationary point found.
 Normal termination of Gaussian 03 at Tue Aug 14 18:45:14 2007.

 ----------------------------------------------------------------------
 #N Geom=AllCheck Guess=Read SCRF=Check GenChk RMP2(FC)/Aug-CC-pVDZ Fre
 q
 ----------------------------------------------------------------------

 Title Card Required
 -------------------
 Redundant internal coordinates taken from checkpoint file:
 pW4-DFT.std.lm.0.chk
 Charge =  1 Multiplicity = 1

                         Standard orientation:
 ---------------------------------------------------------------------
 Center     Atomic     Atomic              Coordinates (Angstroms)
 Number     Number      Type              X           Y           Z
 ---------------------------------------------------------------------
    1          8             0        2.417594   -0.580638    0.144857
    2          8             0       -1.711636   -1.803376    0.144862
    3          8             0       -0.705962    2.384006    0.144894
    4          8             0        0.000006   -0.000002   -0.489321
    5          1             0        2.916702   -0.243442    0.902044
    6          1             0       -1.668991   -2.404449    0.901851
    7          1             0       -2.177185   -2.288525   -0.551423
    8          1             0        3.070600   -0.740843   -0.551446
    9          1             0       -1.247940    2.647674    0.901782
   10          1             0       -0.893207    3.029724   -0.551459
   11          1             0       -0.318820    0.918296   -0.204512
   12          1             0       -0.635879   -0.735280   -0.204605
   13          1             0        0.954701   -0.183080   -0.204566
 ---------------------------------------------------------------------

 SCF Done:  E(RHF) =  -304.549979872     A.U. after    1 cycles
 E2 =    -0.8868286506D+00 EUMP2 =    -0.30543680852292D+03

 The electronic state is 1-A.
 Alpha  occ. eigenvalues --  -20.80804 -20.76341 -20.76340 -20.76340  -1.61252
 Alpha  occ. eigenvalues --   -1.54336  -1.54336  -1.53762  -0.97025  -0.97025
 Alpha  occ. eigenvalues --   -0.90315  -0.90249  -0.90249  -0.81546  -0.76624
 Alpha  occ. eigenvalues --   -0.76624  -0.75633  -0.70170  -0.69898  -0.69898
 Alpha virt. eigenvalues --   -0.09143  -0.06907  -0.06907  -0.05654  -0.03577
 Alpha virt. eigenvalues --   -0.03577  -0.02445  -0.01462  -0.01461   0.04841
 Alpha virt. eigenvalues --    0.05600   0.06295   0.06295   0.09075   0.09076

 Mulliken atomic charges:
              1
     1  O   -0.502579
     2  O   -0.502572
     3  O   -0.502567
     4  O   -0.374797
     5  H    0.215105
     6  H    0.215104
     7  H    0.204098
     8  H    0.204099
     9  H    0.215098
    10  H    0.204096
    11  H    0.541631
    12  H    0.541639
    13  H    0.541644
 Sum of Mulliken charges=   1.00000

 Dipole moment (field-independent basis, Debye):
    X=     0.0000    Y=     0.0001    Z=     0.6830  Tot=     0.6830
 Quadrupole moment (field-independent basis, Debye-Ang):
   XX=    -0.6694   YY=    -0.6705   ZZ=   -19.6877
   XY=     0.0009   XZ=     0.0004   YZ=    -0.0018

  Exact polarizability:  37.359   0.000  37.359   0.000   0.000  30.952
 Approx polarizability:  26.021   0.000  26.020   0.000  -0.001  26.239

                     1                      2                      3
                     A                      A                      A
 Frequencies --    62.5442                62.5444                70.3201
 Red. masses --     4.6797                 4.6794                 2.7521
 Frc consts  --     0.0108                 0.0108                 0.0080
 IR Inten    --     1.2250                 1.2248                 0.5151

                     4                      5                      6
                     A                      A                      A
 Frequencies --   114.6248               114.7182               124.9146
 Red. masses --     1.0314                 1.0314                 1.1510
 Frc consts  --     0.0080                 0.0080                 0.0106
 IR Inten    --     0.2000                 0.1991                67.5838

                     7                      8                      9
                     A                      A                      A
 Frequencies --   259.4741               281.4776               281.4883
 Red. masses --     1.3718                 1.2396                 1.2396
 Frc consts  --     0.0544                 0.0579                 0.0579
 IR Inten    --    47.5395               197.7991               197.8174

                    10                     11                     12
                     A                      A                      A
 Frequencies --   284.9522               344.0020               344.0093
 Red. masses --     3.1047                 2.7530                 2.7543
 Frc consts  --     0.1485                 0.1919                 0.1920
 IR Inten    --    16.1025               156.7281               156.8091

                    13                     14                     15
                     A                      A                      A
 Frequencies --   378.2146               378.2305               419.1482
 Red. masses --     1.2437                 1.2437                 1.2252
 Frc consts  --     0.1048                 0.1048                 0.1268
 IR Inten    --    80.7755                80.7933                68.8667

                    16                     17                     18
                     A                      A                      A
 Frequencies --   724.7578               971.4720               971.5218
 Red. masses --     1.0212                 1.0419                 1.0419
 Frc consts  --     0.3160                 0.5794                 0.5794
 IR Inten    --     0.1814                71.4937                71.4763

                    19                     20                     21
                     A                      A                      A
 Frequencies --  1201.8427              1622.8223              1622.8296
 Red. masses --     1.0793                 1.0855                 1.0855
 Frc consts  --     0.9186                 1.6843                 1.6843
 IR Inten    --   231.7602                58.1640                58.1625

                    22                     23                     24
                     A                      A                      A
 Frequencies --  1638.1654              1709.3777              1709.4002
 Red. masses --     1.0873                 1.0460                 1.0460
 Frc consts  --     1.7191                 1.8008                 1.8008
 IR Inten    --     0.3781                14.8596                14.8664

                    25                     26                     27
                     A                      A                      A
 Frequencies --  2938.1162              2938.1667              3010.2521
 Red. masses --     1.1106                 1.1106                 1.0199
 Frc consts  --     5.6485                 5.6487                 5.4453
 IR Inten    --  2887.8822              2887.7318               169.0376

                    28                     29                     30
                     A                      A                      A
 Frequencies --  3781.8982              3781.9084              3782.8406
 Red. masses --     1.0451                 1.0451                 1.0452
 Frc consts  --     8.8068                 8.8069                 8.8120
 IR Inten    --    73.9538                73.9615                 0.0806

                    31                     32                     33
                     A                      A                      A
 Frequencies --  3900.5908              3900.5992              3901.0829
 Red. masses --     1.0828                 1.0828                 1.0828
 Frc consts  --     9.7063                 9.7063                 9.7091
 IR Inten    --    28.0265                28.0368               433.1862

 - Thermochemistry -
 -------------------
 Temperature   298.150 Kelvin.  Pressure   1.00000 Atm.
 Atom  1 has atomic number  8 and mass  15.99491

 Molecular mass:    73.05008 amu.
 Principal axes and moments of inertia in atomic units:
                           1         2         3
     EIGENVALUES --   664.64421 664.648941269.73137
           X            0.96333   0.26832   0.00000
           Y           -0.26832   0.96333   0.00000
           Z            0.00000   0.00000   1.00000
 This molecule is an asymmetric top.
 Rotational symmetry number  1.
 Warning -- assumption of classical behavior for rotation
           may cause significant error
 Rotational temperatures (Kelvin)      0.13032     0.13032     0.06821
 Rotational constants (GHZ):           2.71535     2.71533     1.42136
 Zero-point vibrational energy     284880.5 (Joules/Mol)
                                   68.08808 (Kcal/Mol)
 Warning -- explicit consideration of  15 degrees of freedom as
           vibrations may cause significant error
 Vibrational temperatures:     89.99    89.99   101.17   164.92   165.05
          (Kelvin)            179.72   373.32   404.98   405.00   409.98
                              494.94   494.95   544.17   544.19   603.06
                             1042.76  1397.73  1397.80  1729.18  2334.88
                             2334.89  2356.95  2459.41  2459.44  4227.29
                             4227.36  4331.08  5441.30  5441.32  5442.66
                             5612.07  5612.09  5612.78

 Zero-point correction=                           0.108505 (Hartree/Particle)
 Thermal correction to Energy=                    0.119555
 Thermal correction to Enthalpy=                  0.120499
 Thermal correction to Gibbs Free Energy=         0.072488
 Sum of electronic and zero-point Energies=           -305.328303
 Sum of electronic and thermal Energies=              -305.317254
 Sum of electronic and thermal Enthalpies=            -305.316310
 Sum of electronic and thermal Free Energies=         -305.364320

                     E (Thermal)             CV                S
                      KCal/Mol        Cal/Mol-Kelvin    Cal/Mol-Kelvin
 Total                   75.022             34.197            101.047
 Electronic               0.000              0.000              0.000
 Translational            0.889              2.981             38.782
 Rotational               0.889              2.981             27.819
 Vibrational             73.244             28.236             34.446
 Vibration  1             0.597              1.972              4.375
 Vibration  2             0.597              1.972              4.375
 Vibration  3             0.598              1.968              4.144
 Vibration  4             0.608              1.937              3.189
 Vibration  5             0.608              1.937              3.187
 Vibration  6             0.610              1.928              3.023
 Vibration  7             0.668              1.747              1.665
 Vibration  8             0.681              1.708              1.525
 Vibration  9             0.681              1.708              1.525
 Vibration 10             0.683              1.702              1.504
 Vibration 11             0.723              1.587              1.194
 Vibration 12             0.723              1.587              1.193
 Vibration 13             0.748              1.517              1.046
 Vibration 14             0.749              1.517              1.046
 Vibration 15             0.782              1.429              0.895

 Optimization completed.
    -- Stationary point found.
 Normal termination of Gaussian 03 at Tue Aug 14 20:21:42 2007.
