 Gaussian 03, Revision D.01,
 Gaussian 03:  AM64L-G03RevD.01 13-Oct-2005

 -----------------------------------------
 #opt=(maxcycles=200) freq mp2/aug-cc-pvDZ
 -----------------------------------------

 -----
 Str 5
 -----
 Symbolic Z-matrix:
 Charge =  1 Multiplicity = 1

 SCF Done:  E(RHF) =  -380.602750104     A.U. after   11 cycles
 E2 =    -0.1114165776D+01 EUMP2 =    -0.38171691588012D+03
 SCF Done:  E(RHF) =  -380.607757568     A.U. after    9 cycles
 E2 =    -0.1112330811D+01 EUMP2 =    -0.38172008837851D+03
 SCF Done:  E(RHF) =  -380.607513375     A.U. after    9 cycles
 E2 =    -0.1113213209D+01 EUMP2 =    -0.38172072658371D+03
 SCF Done:  E(RHF) =  -380.606781793     A.U. after   10 cycles
 E2 =    -0.1114315940D+01 EUMP2 =    -0.38172109773288D+03
 SCF Done:  E(RHF) =  -380.606639989     A.U. after    9 cycles
 E2 =    -0.1114570656D+01 EUMP2 =    -0.38172121064576D+03
 SCF Done:  E(RHF) =  -380.606823177     A.U. after    9 cycles
 E2 =    -0.1114470799D+01 EUMP2 =    -0.38172129397552D+03
 SCF Done:  E(RHF) =  -380.607170780     A.U. after    9 cycles
 E2 =    -0.1114168997D+01 EUMP2 =    -0.38172133977699D+03
 SCF Done:  E(RHF) =  -380.607574682     A.U. after    9 cycles
 E2 =    -0.1113801171D+01 EUMP2 =    -0.38172137585313D+03
 SCF Done:  E(RHF) =  -380.607829961     A.U. after    9 cycles
 E2 =    -0.1113568642D+01 EUMP2 =    -0.38172139860374D+03
 SCF Done:  E(RHF) =  -380.607919256     A.U. after    8 cycles
 E2 =    -0.1113495633D+01 EUMP2 =    -0.38172141488959D+03
 E2 =    -0.1113579092D+01 EUMP2 =    -0.38172142621535D+03
 E2 =    -0.1113750176D+01 EUMP2 =    -0.38172143420771D+03
 E2 =    -0.1113905799D+01 EUMP2 =    -0.38172143949535D+03
 SCF Done:  E(RHF) =  -380.607433719     A.U. after    8 cycles
 E2 =    -0.1114009647D+01 EUMP2 =    -0.38172144336563D+03
 SCF Done:  E(RHF) =  -380.607423267     A.U. after    8 cycles
 E2 =    -0.1114022221D+01 EUMP2 =    -0.38172144548798D+03
 SCF Done:  E(RHF) =  -380.607458017     A.U. after    7 cycles
 E2 =    -0.1113988667D+01 EUMP2 =    -0.38172144668390D+03
 SCF Done:  E(RHF) =  -380.607508311     A.U. after    7 cycles
 E2 =    -0.1113939141D+01 EUMP2 =    -0.38172144745169D+03
 SCF Done:  E(RHF) =  -380.607542605     A.U. after    8 cycles
 E2 =    -0.1113905091D+01 EUMP2 =    -0.38172144769612D+03
 SCF Done:  E(RHF) =  -380.607548527     A.U. after    7 cycles
 E2 =    -0.1113899691D+01 EUMP2 =    -0.38172144821764D+03
 SCF Done:  E(RHF) =  -380.607549374     A.U. after    7 cycles
 E2 =    -0.1113899062D+01 EUMP2 =    -0.38172144843564D+03
 SCF Done:  E(RHF) =  -380.607541217     A.U. after    8 cycles
 E2 =    -0.1113907205D+01 EUMP2 =    -0.38172144842210D+03
 SCF Done:  E(RHF) =  -380.607535182     A.U. after    7 cycles
 E2 =    -0.1113913483D+01 EUMP2 =    -0.38172144866500D+03
 Optimization completed.
    -- Stationary point found.
 Normal termination of Gaussian 03 at Mon May 10 23:41:59 2010.

 ----------------------------------------------------------------------
 #N Geom=AllCheck Guess=Read SCRF=Check GenChk RMP2(FC)/Aug-CC-pVDZ Fre
 q
 ----------------------------------------------------------------------

 Str 5
 -----
 Redundant internal coordinates taken from checkpoint file:
 pW-5-6.xyz.0.chk
 Charge =  1 Multiplicity = 1

                         Standard orientation:
 ---------------------------------------------------------------------
 Center     Atomic     Atomic              Coordinates (Angstroms)
 Number     Number      Type              X           Y           Z
 ---------------------------------------------------------------------
    1          8             0       -0.692835    1.823919   -0.083816
    2          8             0       -0.616178   -1.811394   -0.105296
    3          8             0        1.007184    0.043430   -0.762161
    4          8             0        3.255099   -0.042659    0.501409
    5          8             0       -2.809907   -0.041455    0.401826
    6          1             0       -0.856967    2.681273   -0.499425
    7          1             0       -1.561911    1.398176    0.045380
    8          1             0       -1.506667   -1.432868    0.022005
    9          1             0       -0.731432   -2.680612   -0.512446
   10          1             0        1.864267    0.051126   -0.229025
   11          1             0        0.415983    0.840425   -0.534187
   12          1             0        4.095242    0.042900    0.029561
   13          1             0        3.435704    0.213686    1.416122
   14          1             0       -3.127037   -0.056533    1.318150
   15          1             0       -3.621837   -0.052215   -0.127735
   16          1             0        0.447751   -0.780083   -0.544102
 ---------------------------------------------------------------------

 SCF Done:  E(RHF) =  -380.607535182     A.U. after    1 cycles
 E2 =    -0.1113913495D+01 EUMP2 =    -0.38172144867678D+03

 The electronic state is 1-A.
 Alpha  occ. eigenvalues --  -20.79290 -20.76046 -20.74993 -20.74242 -20.74155
 Alpha  occ. eigenvalues --   -1.59827  -1.53865  -1.52850  -1.52281  -1.51646
 Alpha  occ. eigenvalues --   -0.95772  -0.93879  -0.89636  -0.89143  -0.89013
 Alpha  occ. eigenvalues --   -0.88702  -0.80811  -0.77170  -0.75174  -0.75034
 Alpha  occ. eigenvalues --   -0.73296  -0.69192  -0.68777  -0.68105  -0.67793
 Alpha virt. eigenvalues --   -0.08619  -0.06938  -0.05777  -0.05132  -0.04352
 Alpha virt. eigenvalues --   -0.03523  -0.02555  -0.01701  -0.00744   0.00083
 Alpha virt. eigenvalues --    0.00463   0.05297   0.06290   0.06634   0.07184

 Mulliken atomic charges:
              1
     1  O   -0.494817
     2  O   -0.494865
     3  O   -0.433211
     4  O   -0.489920
     5  O   -0.661137
     6  H    0.216149
     7  H    0.299162
     8  H    0.296958
     9  H    0.217573
    10  H    0.534679
    11  H    0.531486
    12  H    0.200511
    13  H    0.209567
    14  H    0.273264
    15  H    0.271671
    16  H    0.522930
 Sum of Mulliken charges=   1.00000

 Dipole moment (field-independent basis, Debye):
    X=    -1.2174    Y=     0.5051    Z=     0.3991  Tot=     1.3771
 Quadrupole moment (field-independent basis, Debye-Ang):
   XX=    16.9686   YY=   -18.0918   ZZ=   -27.2425
   XY=     2.3465   XZ=     2.0745   YZ=     0.7568

  Exact polarizability:  51.096   0.088  45.018  -0.188   0.122  38.357
 Approx polarizability:  35.022   0.152  32.751  -0.080   0.236  31.711

                     1                      2                      3
                     A                      A                      A
 Frequencies --    31.1618                61.9719                76.3500
 Red. masses --     4.0767                 5.2571                 4.2095
 Frc consts  --     0.0023                 0.0119                 0.0145
 IR Inten    --     3.3136                 1.6890                 1.6036

                     4                      5                      6
                     A                      A                      A
 Frequencies --    91.6559               104.9958               134.2339
 Red. masses --     5.2034                 1.0324                 4.5261
 Frc consts  --     0.0258                 0.0067                 0.0481
 IR Inten    --     4.3341                20.8516                 0.8921

                     7                      8                      9
                     A                      A                      A
 Frequencies --   188.3176               215.0517               231.6279
 Red. masses --     4.1906                 1.1532                 1.1106
 Frc consts  --     0.0876                 0.0314                 0.0351
 IR Inten    --     9.7988               159.6734                60.8084

                    10                     11                     12
                     A                      A                      A
 Frequencies --   245.3174               284.3902               291.9361
 Red. masses --     1.1296                 1.3756                 1.1972
 Frc consts  --     0.0401                 0.0656                 0.0601
 IR Inten    --    81.2442                49.2028                 2.2099

                    13                     14                     15
                     A                      A                      A
 Frequencies --   299.8266               331.8891               362.4491
 Red. masses --     2.2629                 4.6028                 2.3432
 Frc consts  --     0.1199                 0.2987                 0.1814
 IR Inten    --    58.3806               125.8122                94.2215

                    16                     17                     18
                     A                      A                      A
 Frequencies --   383.1560               422.1094               505.4501
 Red. masses --     1.5810                 1.1070                 1.1141
 Frc consts  --     0.1367                 0.1162                 0.1677
 IR Inten    --    45.8623                 6.0899               233.0946

                    19                     20                     21
                     A                      A                      A
 Frequencies --   536.2379               646.9862               693.2655
 Red. masses --     1.1621                 1.0338                 1.0666
 Frc consts  --     0.1969                 0.2550                 0.3020
 IR Inten    --   154.6246                97.1583               125.3503

                    22                     23                     24
                     A                      A                      A
 Frequencies --   725.6614               916.7203               940.7771
 Red. masses --     1.0344                 1.0445                 1.0408
 Frc consts  --     0.3209                 0.5172                 0.5427
 IR Inten    --    11.2547                84.5694                24.5432

                    25                     26                     27
                     A                      A                      A
 Frequencies --  1275.7882              1619.5834              1624.5491
 Red. masses --     1.0937                 1.0812                 1.0832
 Frc consts  --     1.0488                 1.6710                 1.6843
 IR Inten    --   234.9525                30.4000                55.9663

                    28                     29                     30
                     A                      A                      A
 Frequencies --  1628.6780              1654.2153              1670.7978
 Red. masses --     1.0833                 1.0759                 1.0463
 Frc consts  --     1.6931                 1.7347                 1.7210
 IR Inten    --    87.6565                15.4117                15.3325

                    31                     32                     33
                     A                      A                      A
 Frequencies --  1795.3599              2822.8140              2915.3876
 Red. masses --     1.0475                 1.1063                 1.0743
 Frc consts  --     1.9893                 5.1941                 5.3798
 IR Inten    --    89.6035              1830.9758              2616.7030

                    34                     35                     36
                     A                      A                      A
 Frequencies --  3047.0387              3635.1782              3656.9288
 Red. masses --     1.0501                 1.0556                 1.0538
 Frc consts  --     5.7443                 8.2187                 8.3031
 IR Inten    --  1023.7422               235.3115               497.9644

                    37                     38                     39
                     A                      A                      A
 Frequencies --  3759.3778              3788.4937              3867.2105
 Red. masses --     1.0458                 1.0450                 1.0739
 Frc consts  --     8.7081                 8.8370                 9.4629
 IR Inten    --    18.6275                45.3266               300.3997

                    40                     41                     42
                     A                      A                      A
 Frequencies --  3871.1342              3871.9964              3909.4469
 Red. masses --     1.0753                 1.0809                 1.0830
 Frc consts  --     9.4944                 9.5477                 9.7519
 IR Inten    --    88.5540               151.4988               159.7915

 - Thermochemistry -
 -------------------
 Temperature   298.150 Kelvin.  Pressure   1.00000 Atm.
 Atom  1 has atomic number  8 and mass  15.99491

 Molecular mass:    91.06065 amu.
 Principal axes and moments of inertia in atomic units:
                           1         2         3
     EIGENVALUES --   524.265371459.280711832.66051
           X            0.99999   0.00380   0.00306
           Y           -0.00381   0.99999   0.00256
           Z           -0.00305  -0.00258   0.99999
 This molecule is an asymmetric top.
 Rotational symmetry number  1.
 Warning -- assumption of classical behavior for rotation
           may cause significant error
 Rotational temperatures (Kelvin)      0.16521     0.05935     0.04726
 Rotational constants (GHZ):           3.44242     1.23673     0.98477
 Zero-point vibrational energy     353708.9 (Joules/Mol)
                                   84.53847 (Kcal/Mol)
 Warning -- explicit consideration of  19 degrees of freedom as
           vibrations may cause significant error
 Vibrational temperatures:     44.83    89.16   109.85   131.87   151.07
          (Kelvin)            193.13   270.95   309.41   333.26   352.96
                              409.17   420.03   431.38   477.51   521.48
                              551.28   607.32   727.23   771.53   930.87
                              997.45  1044.06  1318.95  1353.57  1835.57
                             2330.22  2337.36  2343.30  2380.04  2403.90
                             2583.12  4061.39  4194.59  4384.00  5230.20
                             5261.50  5408.90  5450.79  5564.05  5569.69
                             5570.93  5624.82

 Zero-point correction=                           0.134721 (Hartree/Particle)
 Thermal correction to Energy=                    0.147821
 Thermal correction to Enthalpy=                  0.148765
 Thermal correction to Gibbs Free Energy=         0.095929
 Sum of electronic and zero-point Energies=           -381.586728
 Sum of electronic and thermal Energies=              -381.573628
 Sum of electronic and thermal Enthalpies=            -381.572684
 Sum of electronic and thermal Free Energies=         -381.625520

                     E (Thermal)             CV                S
                      KCal/Mol        Cal/Mol-Kelvin    Cal/Mol-Kelvin
 Total                   92.759             42.399            111.204
 Electronic               0.000              0.000              0.000
 Translational            0.889              2.981             39.439
 Rotational               0.889              2.981             28.729
 Vibrational             90.982             36.437             43.035
 Vibration  1             0.594              1.983              5.754
 Vibration  2             0.597              1.972              4.393
 Vibration  3             0.599              1.965              3.983
 Vibration  4             0.602              1.955              3.624
 Vibration  5             0.605              1.945              3.359
 Vibration  6             0.613              1.919              2.884
 Vibration  7             0.633              1.856              2.244
 Vibration  8             0.645              1.818              2.000
 Vibration  9             0.653              1.793              1.866
 Vibration 10             0.660              1.771              1.764
 Vibration 11             0.683              1.703              1.507
 Vibration 12             0.687              1.689              1.463
 Vibration 13             0.692              1.674              1.418
 Vibration 14             0.714              1.612              1.251
 Vibration 15             0.736              1.550              1.112
 Vibration 16             0.752              1.506              1.027
 Vibration 17             0.784              1.422              0.885
 Vibration 18             0.861              1.238              0.645
 Vibration 19             0.891              1.170              0.573

 Normal termination of Gaussian 03 at Tue May 11 00:52:21 2010.
