 Gaussian 03, Revision D.01,
 Gaussian 03:  AM64L-G03RevD.01 13-Oct-2005

 -----------------------------------------
 #opt=(maxcycles=200) freq mp2/aug-cc-pvDZ
 -----------------------------------------

 -----
 Str 5
 -----
 Symbolic Z-matrix:
 Charge =  1 Multiplicity = 1

 SCF Done:  E(RHF) =  -456.655420193     A.U. after   11 cycles
 E2 =    -0.1340877695D+01 EUMP2 =    -0.45799629788831D+03
 SCF Done:  E(RHF) =  -456.662868482     A.U. after   10 cycles
 E2 =    -0.1338028296D+01 EUMP2 =    -0.45800089677788D+03
 SCF Done:  E(RHF) =  -456.663111767     A.U. after    9 cycles
 E2 =    -0.1338751805D+01 EUMP2 =    -0.45800186357243D+03
 SCF Done:  E(RHF) =  -456.662538545     A.U. after   10 cycles
 E2 =    -0.1339901356D+01 EUMP2 =    -0.45800243990043D+03
 SCF Done:  E(RHF) =  -456.662313717     A.U. after    9 cycles
 E2 =    -0.1340345586D+01 EUMP2 =    -0.45800265930313D+03
 SCF Done:  E(RHF) =  -456.662489635     A.U. after    9 cycles
 E2 =    -0.1340349531D+01 EUMP2 =    -0.45800283916578D+03
 SCF Done:  E(RHF) =  -456.662956963     A.U. after    9 cycles
 E2 =    -0.1340018818D+01 EUMP2 =    -0.45800297578091D+03
 SCF Done:  E(RHF) =  -456.663511685     A.U. after    9 cycles
 E2 =    -0.1339574230D+01 EUMP2 =    -0.45800308591461D+03
 SCF Done:  E(RHF) =  -456.663669834     A.U. after    9 cycles
 E2 =    -0.1339475340D+01 EUMP2 =    -0.45800314517429D+03
 SCF Done:  E(RHF) =  -456.663835931     A.U. after    9 cycles
 E2 =    -0.1339390554D+01 EUMP2 =    -0.45800322648558D+03
 E2 =    -0.1339451906D+01 EUMP2 =    -0.45800325786560D+03
 E2 =    -0.1339464639D+01 EUMP2 =    -0.45800326281121D+03
 E2 =    -0.1339606847D+01 EUMP2 =    -0.45800327979091D+03
 E2 =    -0.1339627927D+01 EUMP2 =    -0.45800328676016D+03
 E2 =    -0.1339648114D+01 EUMP2 =    -0.45800328877406D+03
 E2 =    -0.1339673930D+01 EUMP2 =    -0.45800329788334D+03
 E2 =    -0.1338761447D+01 EUMP2 =    -0.45800211639173D+03
 E2 =    -0.1339648811D+01 EUMP2 =    -0.45800332715521D+03
 E2 =    -0.1339713377D+01 EUMP2 =    -0.45800333444956D+03
 E2 =    -0.1339800757D+01 EUMP2 =    -0.45800333948556D+03
 E2 =    -0.1339855581D+01 EUMP2 =    -0.45800334231206D+03
 E2 =    -0.1339917506D+01 EUMP2 =    -0.45800334559680D+03
 SCF Done:  E(RHF) =  -456.663416354     A.U. after    8 cycles
 E2 =    -0.1339931123D+01 EUMP2 =    -0.45800334747748D+03
 SCF Done:  E(RHF) =  -456.663429720     A.U. after    7 cycles
 E2 =    -0.1339918580D+01 EUMP2 =    -0.45800334829960D+03
 SCF Done:  E(RHF) =  -456.663438748     A.U. after    7 cycles
 E2 =    -0.1339909812D+01 EUMP2 =    -0.45800334855913D+03
 SCF Done:  E(RHF) =  -456.663449962     A.U. after    7 cycles
 E2 =    -0.1339898778D+01 EUMP2 =    -0.45800334874065D+03
 SCF Done:  E(RHF) =  -456.663456980     A.U. after    7 cycles
 E2 =    -0.1339891908D+01 EUMP2 =    -0.45800334888788D+03
 SCF Done:  E(RHF) =  -456.663464733     A.U. after    7 cycles
 E2 =    -0.1339884254D+01 EUMP2 =    -0.45800334898725D+03
 SCF Done:  E(RHF) =  -456.663467482     A.U. after    6 cycles
 E2 =    -0.1339881541D+01 EUMP2 =    -0.45800334902292D+03
 SCF Done:  E(RHF) =  -456.663479664     A.U. after    7 cycles
 E2 =    -0.1339869383D+01 EUMP2 =    -0.45800334904702D+03
 SCF Done:  E(RHF) =  -456.663478691     A.U. after    6 cycles
 E2 =    -0.1339870402D+01 EUMP2 =    -0.45800334909265D+03
 Optimization completed.
    -- Stationary point found.
 Normal termination of Gaussian 03 at Tue May 11 03:39:02 2010.

 ----------------------------------------------------------------------
 #N Geom=AllCheck Guess=Read SCRF=Check GenChk RMP2(FC)/Aug-CC-pVDZ Fre
 q
 ----------------------------------------------------------------------

 Str 5
 -----
 Redundant internal coordinates taken from checkpoint file:
 pW-5-6.xyz.1.chk
 Charge =  1 Multiplicity = 1

                         Standard orientation:
 ---------------------------------------------------------------------
 Center     Atomic     Atomic              Coordinates (Angstroms)
 Number     Number      Type              X           Y           Z
 ---------------------------------------------------------------------
    1          8             0       -1.809674   -0.009368    0.844904
    2          8             0        1.743024    0.031691   -0.807940
    3          8             0        4.120346   -0.060140    0.224377
    4          8             0       -4.210619   -0.020476   -0.438695
    5          8             0        0.188481   -1.777196    0.059800
    6          8             0        0.147315    1.805428    0.065622
    7          1             0       -0.649005   -1.335401    0.318757
    8          1             0       -1.991409   -0.017317    1.795828
    9          1             0        1.182527    0.835361   -0.514967
   10          1             0        1.200040   -0.785910   -0.516949
   11          1             0        4.908560    0.020564   -0.330311
   12          1             0        4.392088    0.209819    1.112115
   13          1             0       -4.806541    0.736474   -0.520113
   14          1             0       -4.776233   -0.795106   -0.560169
   15          1             0        2.648086    0.036169   -0.368395
   16          1             0       -0.675096    1.337452    0.328589
   17          1             0       -2.700067   -0.014000    0.419738
   18          1             0       -0.118019    2.622142   -0.377622
   19          1             0       -0.045913   -2.609750   -0.371046
 ---------------------------------------------------------------------

 SCF Done:  E(RHF) =  -456.663478691     A.U. after    1 cycles
 E2 =    -0.1339870382D+01 EUMP2 =    -0.45800334907248D+03

 The electronic state is 1-A.
 Alpha  occ. eigenvalues --  -20.78039 -20.74153 -20.72787 -20.72703 -20.72518
 Alpha  occ. eigenvalues --  -20.72343  -1.58587  -1.52028  -1.51444  -1.50845
 Alpha  occ. eigenvalues --   -1.50249  -1.49149  -0.94568  -0.92491  -0.88446
 Alpha  occ. eigenvalues --   -0.88156  -0.87343  -0.87079  -0.86096  -0.79713
 Alpha  occ. eigenvalues --   -0.76184  -0.74225  -0.73751  -0.72467  -0.70964
 Alpha  occ. eigenvalues --   -0.67861  -0.66761  -0.66483  -0.66005  -0.65678
 Alpha virt. eigenvalues --   -0.07672  -0.06372  -0.05374  -0.04536  -0.04517
 Alpha virt. eigenvalues --   -0.03084  -0.02804  -0.01140  -0.00718  -0.00550
 Alpha virt. eigenvalues --    0.00255   0.00794   0.01367   0.06636   0.07168

 Mulliken atomic charges:
              1
     1  O   -0.794937
     2  O   -0.449324
     3  O   -0.484145
     4  O   -0.450579
     5  O   -0.521424
     6  O   -0.522066
     7  H    0.344000
     8  H    0.268157
     9  H    0.545516
    10  H    0.537722
    11  H    0.198412
    12  H    0.207820
    13  H    0.193852
    14  H    0.193456
    15  H    0.520574
    16  H    0.346734
    17  H    0.447292
    18  H    0.208913
    19  H    0.210027
 Sum of Mulliken charges=   1.00000

 Dipole moment (field-independent basis, Debye):
    X=    -0.6747    Y=     0.5262    Z=     0.2159  Tot=     0.8825
 Quadrupole moment (field-independent basis, Debye-Ang):
   XX=    34.2062   YY=   -24.2218   ZZ=   -33.9422
   XY=     2.8793   XZ=     1.9298   YZ=     0.6659

  Exact polarizability:  63.486   0.083  53.669  -0.117   0.130  47.029
 Approx polarizability:  42.102   0.151  40.481  -0.151   0.277  38.076

                     1                      2                      3
                     A                      A                      A
 Frequencies --    19.9703                29.2057                47.8466
 Red. masses --     4.7610                 3.5404                 5.2993
 Frc consts  --     0.0011                 0.0018                 0.0071
 IR Inten    --     1.3327                 0.0505                 3.5865

                     4                      5                      6
                     A                      A                      A
 Frequencies --    63.6754                81.9436                89.3208
 Red. masses --     3.0842                 3.9885                 1.2521
 Frc consts  --     0.0074                 0.0158                 0.0059
 IR Inten    --     6.1484                 1.7132                 8.6278

                     7                      8                      9
                     A                      A                      A
 Frequencies --    96.9234               100.2600               167.6895
 Red. masses --     4.4924                 1.0907                 4.5015
 Frc consts  --     0.0249                 0.0065                 0.0746
 IR Inten    --     1.1119                21.3905                 3.5716

                    10                     11                     12
                     A                      A                      A
 Frequencies --   183.5845               211.9645               216.7638
 Red. masses --     4.5442                 1.1618                 1.2263
 Frc consts  --     0.0902                 0.0308                 0.0339
 IR Inten    --    31.3572               171.2964               183.9192

                    13                     14                     15
                     A                      A                      A
 Frequencies --   259.4336               286.1017               291.2814
 Red. masses --     1.1679                 2.3015                 3.3740
 Frc consts  --     0.0463                 0.1110                 0.1687
 IR Inten    --    82.4381                12.5922                69.7770

                    16                     17                     18
                     A                      A                      A
 Frequencies --   299.4880               302.7545               339.5405
 Red. masses --     1.7187                 1.1144                 4.7725
 Frc consts  --     0.0908                 0.0602                 0.3242
 IR Inten    --    92.8689                21.0760               146.1419

                    19                     20                     21
                     A                      A                      A
 Frequencies --   363.1090               385.6852               396.4980
 Red. masses --     1.4644                 2.4176                 1.1206
 Frc consts  --     0.1138                 0.2119                 0.1038
 IR Inten    --    87.4174                37.6651                50.6014

                    22                     23                     24
                     A                      A                      A
 Frequencies --   425.4635               477.9144               584.6290
 Red. masses --     1.1244                 1.0505                 1.1339
 Frc consts  --     0.1199                 0.1414                 0.2283
 IR Inten    --    86.5529                22.4470                93.3097

                    25                     26                     27
                     A                      A                      A
 Frequencies --   706.0816               758.3446               793.3224
 Red. masses --     1.0259                 1.0598                 1.0600
 Frc consts  --     0.3013                 0.3591                 0.3930
 IR Inten    --   127.4117                27.6856               118.6658

                    28                     29                     30
                     A                      A                      A
 Frequencies --   899.4451               918.2401               979.9968
 Red. masses --     1.0448                 1.0432                 1.0410
 Frc consts  --     0.4980                 0.5182                 0.5891
 IR Inten    --    75.5896                89.4671                27.5034

                    31                     32                     33
                     A                      A                      A
 Frequencies --  1300.0232              1618.6398              1622.6810
 Red. masses --     1.0930                 1.0778                 1.0835
 Frc consts  --     1.0884                 1.6637                 1.6808
 IR Inten    --   229.2446                38.6031               144.4646

                    34                     35                     36
                     A                      A                      A
 Frequencies --  1628.7760              1644.6194              1666.3011
 Red. masses --     1.0812                 1.0803                 1.0457
 Frc consts  --     1.6899                 1.7216                 1.7106
 IR Inten    --    18.0635                 1.4900                17.5888

                    37                     38                     39
                     A                      A                      A
 Frequencies --  1672.8092              1797.4027              2730.8389
 Red. masses --     1.0729                 1.0484                 1.1096
 Frc consts  --     1.7689                 1.9956                 4.8755
 IR Inten    --    12.4073               115.9673              1746.3781

                    40                     41                     42
                     A                      A                      A
 Frequencies --  2854.2846              3098.2625              3437.2738
 Red. masses --     1.0618                 1.0612                 1.0615
 Frc consts  --     5.0965                 6.0019                 7.3890
 IR Inten    --  2421.1585              1405.0382              1203.1565

                    43                     44                     45
                     A                      A                      A
 Frequencies --  3518.4640              3568.8609              3790.2024
 Red. masses --     1.0603                 1.0578                 1.0450
 Frc consts  --     7.7336                 7.9383                 8.8452
 IR Inten    --   478.9138               402.6107                43.5185

                    46                     47                     48
                     A                      A                      A
 Frequencies --  3792.9610              3837.5200              3866.7398
 Red. masses --     1.0455                 1.0680                 1.0705
 Frc consts  --     8.8616                 9.2663                 9.4302
 IR Inten    --    30.3369               129.7398               240.0133

                    49                     50                     51
                     A                      A                      A
 Frequencies --  3869.8050              3911.8635              3914.4530
 Red. masses --     1.0715                 1.0829                 1.0820
 Frc consts  --     9.4539                 9.7631                 9.7682
 IR Inten    --    78.3783               153.9750               129.0562

 - Thermochemistry -
 -------------------
 Temperature   298.150 Kelvin.  Pressure   1.00000 Atm.
 Atom  1 has atomic number  8 and mass  15.99491

 Molecular mass:   109.07121 amu.
 Principal axes and moments of inertia in atomic units:
                           1         2         3
     EIGENVALUES --   553.835402862.501363184.89533
           X            1.00000   0.00193   0.00155
           Y           -0.00194   1.00000   0.00230
           Z           -0.00155  -0.00230   1.00000
 This molecule is an asymmetric top.
 Rotational symmetry number  1.
 Warning -- assumption of classical behavior for rotation
           may cause significant error
 Rotational temperatures (Kelvin)      0.15639     0.03026     0.02720
 Rotational constants (GHZ):           3.25862     0.63048     0.56666
 Zero-point vibrational energy     418210.0 (Joules/Mol)
                                   99.95460 (Kcal/Mol)
 Warning -- explicit consideration of  24 degrees of freedom as
           vibrations may cause significant error
 Vibrational temperatures:     28.73    42.02    68.84    91.61   117.90
          (Kelvin)            128.51   139.45   144.25   241.27   264.14
                              304.97   311.87   373.27   411.64   419.09
                              430.90   435.60   488.52   522.43   554.91
                              570.47   612.15   687.61   841.15  1015.89
                             1091.09  1141.41  1294.10  1321.14  1410.00
                             1870.44  2328.86  2334.67  2343.44  2366.24
                             2397.43  2406.80  2586.06  3929.06  4106.67
                             4457.70  4945.46  5062.28  5134.79  5453.25
                             5457.22  5521.33  5563.37  5567.78  5628.29
                             5632.02

 Zero-point correction=                           0.159288 (Hartree/Particle)
 Thermal correction to Energy=                    0.175508
 Thermal correction to Enthalpy=                  0.176452
 Thermal correction to Gibbs Free Energy=         0.114675
 Sum of electronic and zero-point Energies=           -457.844061
 Sum of electronic and thermal Energies=              -457.827841
 Sum of electronic and thermal Enthalpies=            -457.826897
 Sum of electronic and thermal Free Energies=         -457.888674

                     E (Thermal)             CV                S
                      KCal/Mol        Cal/Mol-Kelvin    Cal/Mol-Kelvin
 Total                  110.133             51.487            130.021
 Electronic               0.000              0.000              0.000
 Translational            0.889              2.981             39.977
 Rotational               0.889              2.981             30.002
 Vibrational            108.356             45.526             60.041
 Vibration  1             0.593              1.986              6.637
 Vibration  2             0.593              1.984              5.883
 Vibration  3             0.595              1.978              4.904
 Vibration  4             0.597              1.972              4.340
 Vibration  5             0.600              1.962              3.844
 Vibration  6             0.602              1.957              3.675
 Vibration  7             0.603              1.951              3.515
 Vibration  8             0.604              1.949              3.449
 Vibration  9             0.624              1.882              2.461
 Vibration 10             0.631              1.862              2.292
 Vibration 11             0.643              1.823              2.027
 Vibration 12             0.646              1.816              1.986
 Vibration 13             0.668              1.747              1.666
 Vibration 14             0.684              1.699              1.497
 Vibration 15             0.687              1.690              1.467
 Vibration 16             0.692              1.675              1.420
 Vibration 17             0.694              1.668              1.402
 Vibration 18             0.719              1.596              1.214
 Vibration 19             0.737              1.548              1.109
 Vibration 20             0.754              1.501              1.017
 Vibration 21             0.763              1.478              0.976
 Vibration 22             0.787              1.415              0.874
 Vibration 23             0.834              1.299              0.716
 Vibration 24             0.942              1.065              0.477

 Normal termination of Gaussian 03 at Tue May 11 06:09:35 2010.
