 Gaussian 03, Revision D.01,
 Gaussian 03:  AM64L-G03RevD.01 13-Oct-2005

 --------------------------------------------
 # opt freq mp2/aug-cc-pvDZ geom=connectivity
 --------------------------------------------

 -------------------
 Title Card Required
 -------------------
 Symbolic Z-matrix:
 Charge =  0 Multiplicity = 1

 SCF Done:  E(RHF) =  -76.0408384922     A.U. after   10 cycles
 E2 =    -0.2193279339D+00 EUMP2 =    -0.76260166426100D+02
 SCF Done:  E(RHF) =  -76.0410376525     A.U. after    9 cycles
 E2 =    -0.2198511814D+00 EUMP2 =    -0.76260888833971D+02
 SCF Done:  E(RHF) =  -76.0407678406     A.U. after    8 cycles
 E2 =    -0.2201419154D+00 EUMP2 =    -0.76260909755957D+02
 Optimization completed.
    -- Stationary point found.
 Normal termination of Gaussian 03 at Wed Apr 13 19:05:38 2005.

 ----------------------------------------------------------------------
 #N Geom=AllCheck Guess=Read SCRF=Check GenChk RMP2(FC)/Aug-CC-pVDZ Fre
 q
 ----------------------------------------------------------------------

 Title Card Required
 -------------------
 Redundant internal coordinates taken from checkpoint file:
 W1.chk
 Charge =  0 Multiplicity = 1

                         Standard orientation:
 ---------------------------------------------------------------------
 Center     Atomic     Atomic              Coordinates (Angstroms)
 Number     Number      Type              X           Y           Z
 ---------------------------------------------------------------------
    1          8             0        0.000000    0.000000    0.119083
    2          1             0        0.000000    0.760510   -0.476331
    3          1             0        0.000000   -0.760510   -0.476331
 ---------------------------------------------------------------------

 SCF Done:  E(RHF) =  -76.0407678406     A.U. after    1 cycles
 E2 =    -0.2201419156D+00 EUMP2 =    -0.76260909756195D+02

 The electronic state is 1-A1.
 Alpha  occ. eigenvalues --  -20.57899  -1.35266  -0.71337  -0.58523  -0.50892
 Alpha virt. eigenvalues --    0.03524   0.05794   0.17410   0.19717   0.22210
 Alpha virt. eigenvalues --    0.23190   0.28798   0.33126   0.38552   0.40161
 Alpha virt. eigenvalues --    0.43159   0.53856   0.64622   0.65791   0.80624

 Mulliken atomic charges:
              1
     1  O   -0.315543
     2  H    0.157772
     3  H    0.157772
 Sum of Mulliken charges=   0.00000

 Dipole moment (field-independent basis, Debye):
    X=     0.0000    Y=     0.0000    Z=    -2.0158  Tot=     2.0158
 Quadrupole moment (field-independent basis, Debye-Ang):
   XX=    -7.6086   YY=    -4.2865   ZZ=    -6.2495
   XY=     0.0000   XZ=     0.0000   YZ=     0.0000

  Exact polarizability:   8.775   0.000   9.956   0.000   0.000   9.172
 Approx polarizability:   5.938   0.000   7.867   0.000   0.000   7.097

                     1                      2                      3
                    A1                     A1                     B2
 Frequencies --  1622.0622              3804.1184              3938.4185
 Red. masses --     1.0824                 1.0455                 1.0812
 Frc consts  --     1.6778                 8.9139                 9.8814
 IR Inten    --    67.4786                 4.1448                67.0645

 - Thermochemistry -
 -------------------
 Temperature   298.150 Kelvin.  Pressure   1.00000 Atm.
 Atom  1 has atomic number  8 and mass  15.99491

 Molecular mass:    18.01056 amu.
 Principal axes and moments of inertia in atomic units:
                           1         2         3
     EIGENVALUES --     2.26624   4.16316   6.42940
           X            0.00000   0.00000   1.00000
           Y            1.00000   0.00000   0.00000
           Z            0.00000   1.00000   0.00000
 This molecule is an asymmetric top.
 Rotational symmetry number  2.
 Rotational temperatures (Kelvin)     38.21920    20.80482    13.47152
 Rotational constants (GHZ):         796.35991   433.50256   280.70135
 Zero-point vibrational energy      56012.7 (Joules/Mol)
                                   13.38737 (Kcal/Mol)
 Vibrational temperatures:   2333.78  5473.27  5666.50
          (Kelvin)

 Zero-point correction=                           0.021334 (Hartree/Particle)
 Thermal correction to Energy=                    0.024170
 Thermal correction to Enthalpy=                  0.025114
 Thermal correction to Gibbs Free Energy=         0.003676
 Sum of electronic and zero-point Energies=            -76.239576
 Sum of electronic and thermal Energies=               -76.236740
 Sum of electronic and thermal Enthalpies=             -76.235796
 Sum of electronic and thermal Free Energies=          -76.257234

                     E (Thermal)             CV                S
                      KCal/Mol        Cal/Mol-Kelvin    Cal/Mol-Kelvin
 Total                   15.167              6.010             45.120
 Electronic               0.000              0.000              0.000
 Translational            0.889              2.981             34.608
 Rotational               0.889              2.981             10.504
 Vibrational             13.389              0.049              0.007

 Optimization completed.
    -- Stationary point found.
 Normal termination of Gaussian 03 at Wed Apr 13 19:05:58 2005.
