 Gaussian 03, Revision D.01,
 Gaussian 03:  AM64L-G03RevD.01 13-Oct-2005

 --------------------------
 # freq opt mp2/aug-cc-pvDZ
 --------------------------

 -------------------
 Title Card Required
 -------------------
 Symbolic Z-matrix:
 Charge =  0 Multiplicity = 1

 SCF Done:  E(RHF) =  -152.086422628     A.U. after   11 cycles
 E2 =    -0.4421536988D+00 EUMP2 =    -0.15252857632713D+03
 SCF Done:  E(RHF) =  -152.087719228     A.U. after   10 cycles
 E2 =    -0.4422983598D+00 EUMP2 =    -0.15253001758785D+03
 SCF Done:  E(RHF) =  -152.087337293     A.U. after    8 cycles
 E2 =    -0.4427331017D+00 EUMP2 =    -0.15253007039512D+03
 SCF Done:  E(RHF) =  -152.087265017     A.U. after    8 cycles
 E2 =    -0.4428195432D+00 EUMP2 =    -0.15253008456041D+03
 SCF Done:  E(RHF) =  -152.087216558     A.U. after   12 cycles
 E2 =    -0.4428957567D+00 EUMP2 =    -0.15253011231455D+03
 SCF Done:  E(RHF) =  -152.087306297     A.U. after    9 cycles
 E2 =    -0.4428277294D+00 EUMP2 =    -0.15253013402628D+03
 SCF Done:  E(RHF) =  -152.087468440     A.U. after    9 cycles
 E2 =    -0.4426817639D+00 EUMP2 =    -0.15253015020419D+03
 SCF Done:  E(RHF) =  -152.087597411     A.U. after    9 cycles
 E2 =    -0.4425637229D+00 EUMP2 =    -0.15253016113413D+03
 SCF Done:  E(RHF) =  -152.087704668     A.U. after    9 cycles
 E2 =    -0.4424685997D+00 EUMP2 =    -0.15253017326779D+03
 SCF Done:  E(RHF) =  -152.087727087     A.U. after    9 cycles
 E2 =    -0.4424570100D+00 EUMP2 =    -0.15253018409662D+03
 SCF Done:  E(RHF) =  -152.087647667     A.U. after   13 cycles
 E2 =    -0.4425443851D+00 EUMP2 =    -0.15253019205198D+03
 SCF Done:  E(RHF) =  -152.087524574     A.U. after    8 cycles
 E2 =    -0.4426717919D+00 EUMP2 =    -0.15253019636621D+03
 SCF Done:  E(RHF) =  -152.087430291     A.U. after    8 cycles
 E2 =    -0.4427682140D+00 EUMP2 =    -0.15253019850493D+03
 SCF Done:  E(RHF) =  -152.087380169     A.U. after    8 cycles
 E2 =    -0.4428197020D+00 EUMP2 =    -0.15253019987133D+03
 SCF Done:  E(RHF) =  -152.087335899     A.U. after    8 cycles
 E2 =    -0.4428657861D+00 EUMP2 =    -0.15253020168523D+03
 SCF Done:  E(RHF) =  -152.087330916     A.U. after   13 cycles
 E2 =    -0.4428729385D+00 EUMP2 =    -0.15253020385484D+03
 SCF Done:  E(RHF) =  -152.087367204     A.U. after    9 cycles
 E2 =    -0.4428386314D+00 EUMP2 =    -0.15253020583545D+03
 SCF Done:  E(RHF) =  -152.087417176     A.U. after    8 cycles
 E2 =    -0.4427895752D+00 EUMP2 =    -0.15253020675158D+03
 SCF Done:  E(RHF) =  -152.087435015     A.U. after    7 cycles
 E2 =    -0.4427719200D+00 EUMP2 =    -0.15253020693506D+03
 Optimization completed.
    -- Stationary point found.
 Normal termination of Gaussian 03 at Mon Apr 16 21:45:44 2007.

 ----------------------------------------------------------------------
 #N Geom=AllCheck Guess=Read SCRF=Check GenChk RMP2(FC)/Aug-CC-pVDZ Fre
 q
 ----------------------------------------------------------------------

 Title Card Required
 -------------------
 Redundant internal coordinates taken from checkpoint file:
 W2.chk
 Charge =  0 Multiplicity = 1

                         Standard orientation:
 ---------------------------------------------------------------------
 Center     Atomic     Atomic              Coordinates (Angstroms)
 Number     Number      Type              X           Y           Z
 ---------------------------------------------------------------------
    1          8             0       -1.390447   -0.000065    0.112473
    2          8             0        1.517169    0.000084   -0.122870
    3          1             0       -1.747581    0.762907   -0.361522
    4          1             0       -1.747513   -0.762517   -0.362410
    5          1             0        0.560486   -0.000012    0.053666
    6          1             0        1.920835   -0.000524    0.753438
 ---------------------------------------------------------------------

 SCF Done:  E(RHF) =  -152.087435015     A.U. after    1 cycles
 E2 =    -0.4427719199D+00 EUMP2 =    -0.15253020693490D+03

 The electronic state is 1-A.
 Alpha  occ. eigenvalues --  -20.60390 -20.54716  -1.37962  -1.32183  -0.73878
 Alpha  occ. eigenvalues --   -0.69166  -0.61415  -0.55886  -0.52980  -0.47990
 Alpha virt. eigenvalues --    0.02815   0.05525   0.05591   0.09140   0.15772
 Alpha virt. eigenvalues --    0.18451   0.21115   0.21436   0.22714   0.23716
 Alpha virt. eigenvalues --    0.26089   0.28326   0.29509   0.33231   0.35002

 Mulliken atomic charges:
              1
     1  O   -0.402732
     2  O   -0.355283
     3  H    0.186812
     4  H    0.186813
     5  H    0.244872
     6  H    0.139518
 Sum of Mulliken charges=   0.00000

 Dipole moment (field-independent basis, Debye):
    X=    -2.7060    Y=    -0.0003    Z=     0.1550  Tot=     2.7105
 Quadrupole moment (field-independent basis, Debye-Ang):
   XX=   -11.1794   YY=   -11.8404   ZZ=   -12.7109
   XY=    -0.0042   XZ=     6.5412   YZ=     0.0004

  Exact polarizability:  21.294  -0.001  18.189   0.782   0.000  17.803
 Approx polarizability:  14.239  -0.001  13.853   0.952   0.000  13.995

                     1                      2                      3
                     A                      A                      A
 Frequencies --   126.4806               147.5078               150.9552
 Red. masses --     1.0710                 1.3571                 1.0323
 Frc consts  --     0.0101                 0.0174                 0.0139
 IR Inten    --   117.8620               161.4943                54.4603

                     4                      5                      6
                     A                      A                      A
 Frequencies --   183.3309               357.6128               638.7233
 Red. masses --     2.9595                 1.1039                 1.0405
 Frc consts  --     0.0586                 0.0832                 0.2501
 IR Inten    --   118.6530                53.7789                91.3110

                     7                      8                      9
                     A                      A                      A
 Frequencies --  1624.0825              1642.5044              3704.4299
 Red. masses --     1.0832                 1.0763                 1.0528
 Frc consts  --     1.6833                 1.7108                 8.5123
 IR Inten    --    85.9916                32.3011               279.5835

                    10                     11                     12
                     A                      A                      A
 Frequencies --  3795.9437              3904.7504              3925.0007
 Red. masses --     1.0454                 1.0747                 1.0813
 Frc consts  --     8.8753                 9.6541                 9.8144
 IR Inten    --    10.2854               113.5632                88.2276

 - Thermochemistry -
 -------------------
 Temperature   298.150 Kelvin.  Pressure   1.00000 Atm.
 Atom  1 has atomic number  8 and mass  15.99491

 Molecular mass:    36.02113 amu.
 Principal axes and moments of inertia in atomic units:
                           1         2         3
     EIGENVALUES --     8.42441 282.72918 282.77899
           X            0.99937   0.03539   0.00018
           Y            0.00002  -0.00563   0.99998
           Z           -0.03539   0.99936   0.00563
 This molecule is an asymmetric top.
 Rotational symmetry number  1.
 Rotational temperatures (Kelvin)     10.28130     0.30635     0.30630
 Rotational constants (GHZ):         214.22769     6.38329     6.38216
 Zero-point vibrational energy     120830.7 (Joules/Mol)
                                   28.87924 (Kcal/Mol)
 Warning -- explicit consideration of   5 degrees of freedom as
           vibrations may cause significant error
 Vibrational temperatures:    181.98   212.23   217.19   263.77   514.52
          (Kelvin)            918.98  2336.69  2363.19  5329.84  5461.51
                             5618.06  5647.19

 Zero-point correction=                           0.046022 (Hartree/Particle)
 Thermal correction to Energy=                    0.051915
 Thermal correction to Enthalpy=                  0.052859
 Thermal correction to Gibbs Free Energy=         0.019598
 Sum of electronic and zero-point Energies=           -152.484185
 Sum of electronic and thermal Energies=              -152.478292
 Sum of electronic and thermal Enthalpies=            -152.477348
 Sum of electronic and thermal Free Energies=         -152.510608

                     E (Thermal)             CV                S
                      KCal/Mol        Cal/Mol-Kelvin    Cal/Mol-Kelvin
 Total                   32.577             16.162             70.003
 Electronic               0.000              0.000              0.000
 Translational            0.889              2.981             36.674
 Rotational               0.889              2.981             21.137
 Vibrational             30.800             10.200             12.191
 Vibration  1             0.611              1.927              2.999
 Vibration  2             0.617              1.905              2.704
 Vibration  3             0.618              1.902              2.660
 Vibration  4             0.631              1.863              2.294
 Vibration  5             0.733              1.560              1.132

 Optimization completed.
    -- Stationary point found.
 Normal termination of Gaussian 03 at Mon Apr 16 21:50:04 2007.
