 Gaussian 03, Revision D.01,
 Gaussian 03:  AM64L-G03RevD.01 13-Oct-2005

 --------------------------------------------
 # opt freq MP2/aug-cc-pvDZ geom=connectivity
 --------------------------------------------

 -------------------
 Title Card Required
 -------------------
 Symbolic Z-matrix:
 Charge =  0 Multiplicity = 1

 SCF Done:  E(RHF) =  -228.137431392     A.U. after   11 cycles
 E2 =    -0.6709220441D+00 EUMP2 =    -0.22880835343651D+03
 SCF Done:  E(RHF) =  -228.138734546     A.U. after    9 cycles
 E2 =    -0.6699222479D+00 EUMP2 =    -0.22880865679351D+03
 SCF Done:  E(RHF) =  -228.138916674     A.U. after    8 cycles
 E2 =    -0.6697976733D+00 EUMP2 =    -0.22880871434781D+03
 SCF Done:  E(RHF) =  -228.139272149     A.U. after    9 cycles
 E2 =    -0.6695123582D+00 EUMP2 =    -0.22880878450738D+03
 SCF Done:  E(RHF) =  -228.139334022     A.U. after    8 cycles
 E2 =    -0.6694566097D+00 EUMP2 =    -0.22880879063118D+03
 SCF Done:  E(RHF) =  -228.139362099     A.U. after    8 cycles
 E2 =    -0.6694301306D+00 EUMP2 =    -0.22880879222921D+03
 SCF Done:  E(RHF) =  -228.139381332     A.U. after    8 cycles
 E2 =    -0.6694127453D+00 EUMP2 =    -0.22880879407705D+03
 SCF Done:  E(RHF) =  -228.139385447     A.U. after    8 cycles
 E2 =    -0.6694106029D+00 EUMP2 =    -0.22880879604942D+03
 SCF Done:  E(RHF) =  -228.139372268     A.U. after    8 cycles
 E2 =    -0.6694251565D+00 EUMP2 =    -0.22880879742413D+03
 SCF Done:  E(RHF) =  -228.139348545     A.U. after    8 cycles
 E2 =    -0.6694495959D+00 EUMP2 =    -0.22880879814082D+03
 SCF Done:  E(RHF) =  -228.139330169     A.U. after    8 cycles
 E2 =    -0.6694683801D+00 EUMP2 =    -0.22880879854954D+03
 SCF Done:  E(RHF) =  -228.139316196     A.U. after    8 cycles
 E2 =    -0.6694827982D+00 EUMP2 =    -0.22880879899389D+03
 SCF Done:  E(RHF) =  -228.139312987     A.U. after    8 cycles
 E2 =    -0.6694864581D+00 EUMP2 =    -0.22880879944537D+03
 SCF Done:  E(RHF) =  -228.139327403     A.U. after    7 cycles
 E2 =    -0.6694723961D+00 EUMP2 =    -0.22880879979912D+03
 SCF Done:  E(RHF) =  -228.139353338     A.U. after    8 cycles
 E2 =    -0.6694466699D+00 EUMP2 =    -0.22880880000799D+03
 Optimization completed.
    -- Stationary point found.
 Normal termination of Gaussian 03 at Wed Apr 13 19:56:34 2005.

 ----------------------------------------------------------------------
 #N Geom=AllCheck Guess=Read SCRF=Check GenChk RMP2(FC)/Aug-CC-pVDZ Fre
 q
 ----------------------------------------------------------------------

 Title Card Required
 -------------------
 Redundant internal coordinates taken from checkpoint file:
 W3.chk
 Charge =  0 Multiplicity = 1

                         Standard orientation:
 ---------------------------------------------------------------------
 Center     Atomic     Atomic              Coordinates (Angstroms)
 Number     Number      Type              X           Y           Z
 ---------------------------------------------------------------------
    1          8             0       -1.481370   -0.648730   -0.084183
    2          1             0       -0.611167   -1.089904   -0.018464
    3          1             0       -2.036484   -1.083380    0.574640
    4          8             0        1.307630   -0.949269   -0.093311
    5          1             0        1.984856   -1.202247    0.545761
    6          1             0        1.228044    0.022699   -0.012079
    7          8             0        0.171588    1.604752    0.110399
    8          1             0       -0.632211    1.050060    0.050206
    9          1             0        0.084180    2.248746   -0.603308
 ---------------------------------------------------------------------

 SCF Done:  E(RHF) =  -228.139353338     A.U. after    1 cycles
 E2 =    -0.6694466654D+00 EUMP2 =    -0.22880880000340D+03

 The electronic state is 1-A.
 Alpha  occ. eigenvalues --  -20.57428 -20.57263 -20.57214  -1.36216  -1.34397
 Alpha  occ. eigenvalues --   -1.34247  -0.73913  -0.70621  -0.70444  -0.59986
 Alpha  occ. eigenvalues --   -0.59432  -0.56373  -0.51331  -0.50551  -0.50106
 Alpha virt. eigenvalues --    0.03300   0.05108   0.05200   0.07875   0.08478
 Alpha virt. eigenvalues --    0.09953   0.16408   0.18416   0.19757   0.21444
 Alpha virt. eigenvalues --    0.21594   0.22554   0.23966   0.26441   0.27006

 Mulliken atomic charges:
              1
     1  O   -0.452611
     2  H    0.271130
     3  H    0.187511
     4  O   -0.446519
     5  H    0.184284
     6  H    0.258603
     7  O   -0.452837
     8  H    0.271523
     9  H    0.178915
 Sum of Mulliken charges=   0.00000

 Dipole moment (field-independent basis, Debye):
    X=     0.0079    Y=    -0.1154    Z=     1.1199  Tot=     1.1258
 Quadrupole moment (field-independent basis, Debye-Ang):
   XX=   -16.4067   YY=   -17.0830   ZZ=   -19.8220
   XY=     0.1063   XZ=    -0.2985   YZ=    -6.4701

  Exact polarizability:  30.672  -0.010  30.535  -0.136  -0.993  25.513
 Approx polarizability:  21.673  -0.002  21.543   0.251  -1.374  20.261

                     1                      2                      3
                     A                      A                      A
 Frequencies --   162.0489               173.7083               184.3537
 Red. masses --     1.2457                 1.7314                 3.4148
 Frc consts  --     0.0193                 0.0308                 0.0684
 IR Inten    --    69.6080                85.4708                31.8656

                     4                      5                      6
                     A                      A                      A
 Frequencies --   193.9347               216.8187               235.7221
 Red. masses --     1.9075                 6.4554                 1.0931
 Frc consts  --     0.0423                 0.1788                 0.0358
 IR Inten    --    97.3861                 4.0019                34.9273

                     7                      8                      9
                     A                      A                      A
 Frequencies --   340.9847               352.2220               440.9624
 Red. masses --     1.0849                 1.0851                 1.0723
 Frc consts  --     0.0743                 0.0793                 0.1229
 IR Inten    --    96.7670                35.7270               129.9597

                    10                     11                     12
                     A                      A                      A
 Frequencies --   568.5781               665.1925               858.5152
 Red. masses --     1.0464                 1.0661                 1.0477
 Frc consts  --     0.1993                 0.2779                 0.4550
 IR Inten    --   150.5055               290.4037                 9.7899

                    13                     14                     15
                     A                      A                      A
 Frequencies --  1631.1452              1634.5555              1658.6273
 Red. masses --     1.0777                 1.0760                 1.0695
 Frc consts  --     1.6893                 1.6938                 1.7334
 IR Inten    --    90.7837                65.0283                 9.2979

                    16                     17                     18
                     A                      A                      A
 Frequencies --  3573.7622              3631.2093              3640.6569
 Red. masses --     1.0581                 1.0562                 1.0557
 Frc consts  --     7.9622                 8.2054                 8.2445
 IR Inten    --    11.5181               487.3226               448.6587

                    19                     20                     21
                     A                      A                      A
 Frequencies --  3889.0089              3892.9926              3893.7948
 Red. masses --     1.0715                 1.0717                 1.0720
 Frc consts  --     9.5483                 9.5692                 9.5764
 IR Inten    --   103.5594               113.2845                92.5791

 - Thermochemistry -
 -------------------
 Temperature   298.150 Kelvin.  Pressure   1.00000 Atm.
 Atom  1 has atomic number  8 and mass  15.99491

 Molecular mass:    54.03169 amu.
 Principal axes and moments of inertia in atomic units:
                           1         2         3
     EIGENVALUES --   263.62935 266.87513 520.83551
           X            0.99934   0.03624  -0.00240
           Y           -0.03631   0.99870  -0.03576
           Z            0.00110   0.03583   0.99936
 This molecule is an asymmetric top.
 Rotational symmetry number  1.
 Rotational temperatures (Kelvin)      0.32854     0.32455     0.16630
 Rotational constants (GHZ):           6.84575     6.76249     3.46509
 Zero-point vibrational energy     190438.3 (Joules/Mol)
                                   45.51584 (Kcal/Mol)
 Warning -- explicit consideration of  10 degrees of freedom as
           vibrations may cause significant error
 Vibrational temperatures:    233.15   249.93   265.24   279.03   311.95
          (Kelvin)            339.15   490.60   506.77   634.45   818.06
                              957.06  1235.21  2346.85  2351.76  2386.39
                             5141.84  5224.49  5238.09  5595.41  5601.14
                             5602.30

 Zero-point correction=                           0.072534 (Hartree/Particle)
 Thermal correction to Energy=                    0.080169
 Thermal correction to Enthalpy=                  0.081113
 Thermal correction to Gibbs Free Energy=         0.042896
 Sum of electronic and zero-point Energies=           -228.736266
 Sum of electronic and thermal Energies=              -228.728631
 Sum of electronic and thermal Enthalpies=            -228.727687
 Sum of electronic and thermal Free Energies=         -228.765904

                     E (Thermal)             CV                S
                      KCal/Mol        Cal/Mol-Kelvin    Cal/Mol-Kelvin
 Total                   50.307             24.273             80.435
 Electronic               0.000              0.000              0.000
 Translational            0.889              2.981             37.883
 Rotational               0.889              2.981             25.108
 Vibrational             48.529             18.312             17.443
 Vibration  1             0.622              1.889              2.526
 Vibration  2             0.627              1.875              2.395
 Vibration  3             0.631              1.861              2.284
 Vibration  4             0.635              1.848              2.190
 Vibration  5             0.646              1.815              1.986
 Vibration  6             0.655              1.786              1.835
 Vibration  7             0.721              1.594              1.208
 Vibration  8             0.729              1.571              1.156
 Vibration  9             0.801              1.381              0.824
 Vibration 10             0.925              1.099              0.507

 Normal termination of Gaussian 03 at Wed Apr 13 20:20:58 2005.
