 Gaussian 03, Revision D.01,
 Gaussian 03:  AM64L-G03RevD.01 13-Oct-2005

 --------------------------
 # opt freq MP2/aug-cc-pvDZ
 --------------------------

 -------------------
 Title Card Required
 -------------------
 Symbolic Z-matrix:
 Charge =  0 Multiplicity = 1

 SCF Done:  E(RHF) =  -304.193032530     A.U. after   10 cycles
 E2 =    -0.8963945756D+00 EUMP2 =    -0.30508942710528D+03
 Optimization completed.
    -- Stationary point found.
 Normal termination of Gaussian 03 at Wed Apr 13 21:35:07 2005.

 ----------------------------------------------------------------------
 #N Geom=AllCheck Guess=Read SCRF=Check GenChk RMP2(FC)/Aug-CC-pVDZ Fre
 q
 ----------------------------------------------------------------------

 Title Card Required
 -------------------
 Redundant internal coordinates taken from checkpoint file:
 W4.chk
 Charge =  0 Multiplicity = 1

                         Standard orientation:
 ---------------------------------------------------------------------
 Center     Atomic     Atomic              Coordinates (Angstroms)
 Number     Number      Type              X           Y           Z
 ---------------------------------------------------------------------
    1          8             0       -1.375936    1.375936    0.001823
    2          1             0       -0.400320    1.511095   -0.006831
    3          1             0       -1.689032    1.874710    0.766516
    4          8             0       -1.375936   -1.375936   -0.001823
    5          1             0       -1.511095   -0.400320    0.006831
    6          1             0       -1.874710   -1.689032   -0.766516
    7          8             0        1.375936   -1.375936    0.001823
    8          1             0        0.400320   -1.511095   -0.006831
    9          1             0        1.689032   -1.874710    0.766516
   10          8             0        1.375936    1.375936   -0.001823
   11          1             0        1.511095    0.400320    0.006831
   12          1             0        1.874710    1.689032   -0.766516
 ---------------------------------------------------------------------

 SCF Done:  E(RHF) =  -304.193032530     A.U. after    1 cycles
 E2 =    -0.8963945779D+00 EUMP2 =    -0.30508942710780D+03

 The electronic state is 1-A.
 Alpha  occ. eigenvalues --  -20.56975 -20.56975 -20.56975 -20.56974  -1.36248
 Alpha  occ. eigenvalues --   -1.34723  -1.34723  -1.33222  -0.72799  -0.71477
 Alpha  occ. eigenvalues --   -0.71477  -0.70628  -0.62280  -0.58615  -0.58615
 Alpha  occ. eigenvalues --   -0.55116  -0.50489  -0.50381  -0.50381  -0.50284
 Alpha virt. eigenvalues --    0.03330   0.05134   0.05134   0.05692   0.08141
 Alpha virt. eigenvalues --    0.09513   0.09513   0.10434   0.15141   0.18847
 Alpha virt. eigenvalues --    0.20216   0.20216   0.21718   0.22946   0.23032

 Mulliken atomic charges:
              1
     1  O   -0.493029
     2  H    0.322764
     3  H    0.170265
     4  O   -0.493029
     5  H    0.322764
     6  H    0.170265
     7  O   -0.493029
     8  H    0.322764
     9  H    0.170265
    10  O   -0.493029
    11  H    0.322764
    12  H    0.170265
 Sum of Mulliken charges=   0.00000

 Dipole moment (field-independent basis, Debye):
    X=     0.0000    Y=     0.0000    Z=     0.0000  Tot=     0.0000
 Quadrupole moment (field-independent basis, Debye-Ang):
   XX=   -23.8957   YY=   -23.8957   ZZ=   -23.9362
   XY=     0.0000   XZ=     0.0000   YZ=     0.0000

  Exact polarizability:  41.522   0.000  41.522   0.000   0.000  33.917
 Approx polarizability:  28.551   0.000  28.551   0.000   0.000  27.843

                     1                      2                      3
                     A                      B                      B
 Frequencies --    50.9979                79.0952               202.8210
 Red. masses --     4.7877                 8.4734                 1.0335
 Frc consts  --     0.0073                 0.0312                 0.0250
 IR Inten    --     0.0000                 1.6200                41.5748

                     4                      5                      6
                     A                      E                      E
 Frequencies --   207.3267               236.4125               236.4126
 Red. masses --     5.8922                 1.7577                 1.7577
 Frc consts  --     0.1492                 0.0579                 0.0579
 IR Inten    --     0.0000                29.4629                29.4624

                     7                      8                      9
                     E                      E                      B
 Frequencies --   252.9260               252.9260               257.1149
 Red. masses --     1.8841                 1.8841                 5.7851
 Frc consts  --     0.0710                 0.0710                 0.2253
 IR Inten    --   231.4941               231.4945                 0.3457

                    10                     11                     12
                     A                      A                      B
 Frequencies --   290.5805               400.8564               431.7235
 Red. masses --     1.1443                 1.0767                 1.0176
 Frc consts  --     0.0569                 0.1019                 0.1117
 IR Inten    --     0.0000                 0.0000                21.0861

                    13                     14                     15
                     E                      E                      B
 Frequencies --   447.9844               447.9845               745.1179
 Red. masses --     1.0981                 1.0981                 1.0770
 Frc consts  --     0.1298                 0.1298                 0.3523
 IR Inten    --    36.3670                36.3670               169.6652

                    16                     17                     18
                     E                      E                      A
 Frequencies --   817.6480               817.6480               989.4213
 Red. masses --     1.0430                 1.0430                 1.0384
 Frc consts  --     0.4108                 0.4108                 0.5989
 IR Inten    --   167.5127               167.5128                 0.0000

                    19                     20                     21
                     B                      E                      E
 Frequencies --  1637.2384              1651.7626              1651.7626
 Red. masses --     1.0817                 1.0735                 1.0735
 Frc consts  --     1.7084                 1.7256                 1.7256
 IR Inten    --    81.8023                47.7581                47.7581

                    22                     23                     24
                     A                      A                      E
 Frequencies --  1681.1007              3398.9809              3489.1866
 Red. masses --     1.0652                 1.0628                 1.0605
 Frc consts  --     1.7736                 7.2343                 7.6072
 IR Inten    --     0.0000                 0.0000              1318.6650

                    25                     26                     27
                     E                      B                      B
 Frequencies --  3489.1866              3526.3634              3882.6081
 Red. masses --     1.0605                 1.0592                 1.0682
 Frc consts  --     7.6072                 7.7606                 9.4872
 IR Inten    --  1318.6649                18.5081               102.5372

                    28                     29                     30
                     E                      E                      A
 Frequencies --  3883.3697              3883.3697              3884.0311
 Red. masses --     1.0686                 1.0686                 1.0689
 Frc consts  --     9.4947                 9.4947                 9.5005
 IR Inten    --   126.0080               126.0080                 0.0000

 - Thermochemistry -
 -------------------
 Temperature   298.150 Kelvin.  Pressure   1.00000 Atm.
 Atom  1 has atomic number  8 and mass  15.99491

 Molecular mass:    72.04226 amu.
 Principal axes and moments of inertia in atomic units:
                           1         2         3
     EIGENVALUES --   504.43139 504.43139 991.94324
           X            0.00000   1.00000   0.00000
           Y            1.00000   0.00000   0.00000
           Z            0.00000   0.00000   1.00000
 This molecule is an oblate symmetric top.
 Rotational symmetry number  2.
 Warning -- assumption of classical behavior for rotation
           may cause significant error
 Rotational temperatures (Kelvin)      0.17171     0.17171     0.08732
 Rotational constants (GHZ):           3.57777     3.57777     1.81940
 Zero-point vibrational energy     258536.7 (Joules/Mol)
                                   61.79175 (Kcal/Mol)
 Warning -- explicit consideration of  14 degrees of freedom as
           vibrations may cause significant error
 Vibrational temperatures:     73.37   113.80   291.81   298.30   340.14
          (Kelvin)            340.14   363.90   363.90   369.93   418.08
                              576.74   621.15   644.55   644.55  1072.06
                             1176.41  1176.41  1423.55  2355.62  2376.52
                             2376.52  2418.73  4890.37  5020.16  5020.16
                             5073.64  5586.20  5587.30  5587.30  5588.25

 Zero-point correction=                           0.098471 (Hartree/Particle)
 Thermal correction to Energy=                    0.108314
 Thermal correction to Enthalpy=                  0.109258
 Thermal correction to Gibbs Free Energy=         0.065703
 Sum of electronic and zero-point Energies=           -304.990956
 Sum of electronic and thermal Energies=              -304.981113
 Sum of electronic and thermal Enthalpies=            -304.980169
 Sum of electronic and thermal Free Energies=         -305.023724

                     E (Thermal)             CV                S
                      KCal/Mol        Cal/Mol-Kelvin    Cal/Mol-Kelvin
 Total                   67.968             32.246             91.668
 Electronic               0.000              0.000              0.000
 Translational            0.889              2.981             38.741
 Rotational               0.889              2.981             25.648
 Vibrational             66.190             26.285             27.280
 Vibration  1             0.595              1.977              4.778
 Vibration  2             0.600              1.963              3.913
 Vibration  3             0.639              1.836              2.107
 Vibration  4             0.641              1.829              2.067
 Vibration  5             0.655              1.785              1.830
 Vibration  6             0.655              1.785              1.830
 Vibration  7             0.664              1.758              1.710
 Vibration  8             0.664              1.758              1.710
 Vibration  9             0.667              1.751              1.681
 Vibration 10             0.687              1.691              1.471
 Vibration 11             0.767              1.468              0.960
 Vibration 12             0.793              1.401              0.853
 Vibration 13             0.807              1.365              0.802
 Vibration 14             0.807              1.365              0.802

 Normal termination of Gaussian 03 at Wed Apr 13 22:56:10 2005.
